"ID","Name","InChI","InChIKey","SMILES","Solubility","SD","Ocurrences","Group","MolWt","MolLogP","MolMR","HeavyAtomCount","NumHAcceptors","NumHDonors","NumHeteroatoms","NumRotatableBonds","NumValenceElectrons","NumAromaticRings","NumSaturatedRings","NumAliphaticRings","RingCount","TPSA","LabuteASA","BalabanJ","BertzCT"
"B-2693","tetrachlorophthalide","InChI=1S/C8H2Cl4O2/c9-4-2-1-14-8(13)3(2)5(10)7(12)6(4)11/h1H2","NMWKWBPNKPGATC-UHFFFAOYSA-N","Clc1c(Cl)c(Cl)c2C(=O)OCc2c1Cl","-5.0365","0.0","1","G1","271.914","3.9706","55.6015","14.0","2.0","0.0","6.0","0.0","74.0","1.0","0.0","1.0","2.0","26.3","99.6435884318383","2.839800155260925","441.70279917131523"
"B-2694","ethychlozate","InChI=1S/C11H11ClN2O2/c1-2-16-11(15)6-10-8-5-7(12)3-4-9(8)13-14-10/h3-5H,2,6H2,1H3,(H,13,14)","GLPZEHFBLBYFHN-UHFFFAOYSA-N","CCOC(=O)Cc1[nH]nc2ccc(Cl)cc12","-3.0256","0.0","1","G1","238.674","2.3219000000000003","61.44070000000002","16.0","3.0","1.0","5.0","3.0","84.0","2.0","0.0","0.0","2.0","54.980000000000004","97.54843163561644","2.3036607238603297","521.678961590002"
"B-2695","quinonamid","InChI=1S/C12H6Cl3NO3/c13-7-8(16-12(19)11(14)15)10(18)6-4-2-1-3-5(6)9(7)17/h1-4,11H,(H,16,19)","ZIEWAMOXCOLNSJ-UHFFFAOYSA-N","ClC(Cl)C(=O)NC1=C(Cl)C(=O)c2ccccc2C1=O","-5.0261","0.0","1","G1","318.54300000000006","2.4359","71.61870000000002","19.0","3.0","1.0","7.0","2.0","98.0","1.0","0.0","1.0","2.0","63.24","122.86984878454751","2.4585018316726477","622.4005526183553"
"B-2696","diisooctyl phthalate","InChI=1S/C24H38O4/c1-19(2)13-7-5-11-17-27-23(25)21-15-9-10-16-22(21)24(26)28-18-12-6-8-14-20(3)4/h9-10,15-16,19-20H,5-8,11-14,17-18H2,1-4H3","IJFPVINAQGWBRJ-UHFFFAOYSA-N","CC(C)CCCCCOC(=O)c1ccccc1C(=O)OCCCCCC(C)C","-6.6375","0.0","1","G1","390.5640000000003","6.433000000000007","113.61900000000009","28.0","4.0","0.0","4.0","14.0","158.0","1.0","0.0","0.0","1.0","52.60000000000001","170.55049583773726","2.388879530306986","526.7228097510647"
"B-2697","probenazole","InChI=1S/C10H9NO3S/c1-2-7-14-10-8-5-3-4-6-9(8)15(12,13)11-10/h2-6H,1,7H2","WHHIPMZEDGBUCC-UHFFFAOYSA-N","C=CCOC1=N[S](=O)(=O)c2ccccc12","-3.1727","0.0","1","G1","223.25300000000001","1.3381","56.31380000000003","15.0","3.0","0.0","5.0","2.0","78.0","1.0","0.0","1.0","2.0","55.73","87.965380999152","2.484134104564599","531.3534120767631"
"B-2698","2-butanone, 3-ethoxy-1,1-dihydroxy-; or kethoxal","InChI=1S/C6H12O4/c1-3-10-4(2)5(7)6(8)9/h4,6,8-9H,3H2,1-2H3","YRCRRHNVYVFNTM-UHFFFAOYSA-N","CCOC(C)C(=O)C(O)O","-0.1707","0.0","1","G1","148.15800000000002","-0.7088","34.32059999999999","10.0","4.0","2.0","4.0","4.0","60.0","0.0","0.0","0.0","0.0","66.76","59.42749643375525","3.7051934500944976","110.31544376215959"
"B-2699","1,1'-biphenyl, octabromo-","InChI=1S/C12H2Br8/c13-4-2-1-3(6(14)7(4)15)5-8(16)10(18)12(20)11(19)9(5)17/h1-2H","NDRKXFLZSRHAJE-UHFFFAOYSA-N","Brc1ccc(c(Br)c1Br)c2c(Br)c(Br)c(Br)c(Br)c2Br","-9.351","0.0","1","G1","785.38","9.4536","113.47800000000001","20.0","0.0","0.0","8.0","1.0","106.0","2.0","0.0","0.0","2.0","0.0","183.4288781706919","2.874714246655958","678.3291147319976"
"B-2700","isopropyl phenyl diphenyl phosphate","InChI=1S/C21H21O4P/c1-17(2)20-15-9-10-16-21(20)25-26(22,23-18-11-5-3-6-12-18)24-19-13-7-4-8-14-19/h3-17H,1-2H3","JJXNVYMIYBNZQX-UHFFFAOYSA-N","CC(C)c1ccccc1O[P](=O)(Oc2ccccc2)Oc3ccccc3","-5.2239","0.0","1","G1","368.369","6.454900000000006","102.90550000000005","26.0","4.0","0.0","5.0","7.0","134.0","3.0","0.0","0.0","3.0","44.760000000000005","153.53066423781056","1.9374096013392925","833.2825186987144"
"B-2701","2h-purine-2-thione, 1,3-dihydro-","InChI=1S/C5H4N4S/c10-5-6-1-3-4(9-5)8-2-7-3/h1-2H,(H2,6,7,8,9,10)","HDBQZGJWHMCXIL-UHFFFAOYSA-N","S=C1Nc2nc[nH]c2C=N1","-2.5803","0.0","1","G1","152.18200000000002","1.0154899999999998","39.07339999999999","10.0","3.0","2.0","5.0","0.0","50.0","2.0","0.0","0.0","2.0","57.36","61.339952262290886","2.990320309898347","400.94019739120694"
"B-2702","2,6-dinitro-biphenyl-3-ol","InChI=1S/C12H8N2O5/c15-10-7-6-9(13(16)17)11(12(10)14(18)19)8-4-2-1-3-5-8/h1-7,15H","RAHRBPFKDAZSCJ-UHFFFAOYSA-N","Oc1ccc(c(c2ccccc2)c1[N+]([O-])=O)[N+]([O-])=O","-3.7164","0.0","1","G1","260.205","2.875600000000002","66.8516","19.0","5.0","1.0","7.0","3.0","96.0","2.0","0.0","0.0","2.0","106.50999999999999","106.58868252275659","2.8492198050632553","654.6693606605909"
"B-2703","chloromethiuron","InChI=1S/C10H13ClN2S/c1-7-6-8(11)4-5-9(7)12-10(14)13(2)3/h4-6H,1-3H3,(H,12,14)","IBZZDPVVVSNQOY-UHFFFAOYSA-N","CN(C)C(=S)Nc1ccc(Cl)cc1C","-3.6604","0.0","1","G1","228.748","2.9068200000000006","66.09670000000003","14.0","1.0","1.0","4.0","1.0","76.0","1.0","0.0","0.0","1.0","15.27","94.86291390498135","2.821792429202683","349.9752768616324"
"B-2704","2,6-dichlorodiphenyl ether","InChI=1S/C12H8Cl2O/c13-10-7-4-8-11(14)12(10)15-9-5-2-1-3-6-9/h1-8H","IRLZOQDGEAEIPX-UHFFFAOYSA-N","Clc1cccc(Cl)c1Oc2ccccc2","-5.0605","0.0","1","G1","239.101","4.785700000000002","62.97800000000003","15.0","1.0","0.0","3.0","2.0","76.0","2.0","0.0","0.0","2.0","9.23","98.20857500883123","2.3241297489229016","434.1842279806418"
"B-2705","bioresmethrin","InChI=1S/C22H26O3/c1-15(2)10-19-20(22(19,3)4)21(23)25-14-17-12-18(24-13-17)11-16-8-6-5-7-9-16/h5-10,12-13,19-20H,11,14H2,1-4H3","VEMKTZHHVJILDY-UHFFFAOYSA-N","CC(C)=CC1C(C(=O)OCc2coc(Cc3ccccc3)c2)C1(C)C","-6.0524","0.44925000000000015","2","G3","338.44700000000006","5.1520000000000055","97.94400000000007","25.0","3.0","0.0","3.0","6.0","132.0","2.0","1.0","1.0","3.0","39.44","149.2417651062343","1.5422099361914814","763.57983714686"
"B-2706","1,2-dithiane-3,6-dicarboxylic acid, cis-","InChI=1S/C6H8O4S2/c7-5(8)3-1-2-4(6(9)10)12-11-3/h3-4H,1-2H2,(H,7,8)(H,9,10)/t3-,4+","NQRRVGBUZRSXRF-ZXZARUISSA-N","OC(=O)[C@@H]1CC[C@@H](SS1)C(O)=O","-1.1709","0.0","1","G1","208.26000000000002","1.0679999999999998","47.26360000000001","12.0","4.0","2.0","6.0","2.0","68.0","0.0","1.0","1.0","1.0","74.6","77.11582428784307","2.3927770801931003","175.72476622436804"
"B-2707","2,4(1h,3h)-pyrimidinedione, 1-methyl-5-nitro-","InChI=1S/C5H5N3O4/c1-7-2-3(8(11)12)4(9)6-5(7)10/h2H,1H3,(H,6,9,10)","JTVBCXIVJCAUBK-UHFFFAOYSA-N","CN1C=C(C(=O)NC1=O)[N+]([O-])=O","-1.9977","0.0","1","G1","171.11199999999997","-1.0181999999999998","38.9581","12.0","5.0","1.0","7.0","1.0","64.0","1.0","0.0","0.0","1.0","98.0","65.42163260496925","3.542028922207898","429.0548522945623"
"B-2710","dinitramine","InChI=1S/C11H13F3N4O4/c1-3-16(4-2)9-7(17(19)20)5-6(11(12,13)14)8(15)10(9)18(21)22/h5H,3-4,15H2,1-2H3","OFDYMSKSGFSLLM-UHFFFAOYSA-N","CCN(CC)c1c(cc(c(N)c1[N+]([O-])=O)C(F)(F)F)[N+]([O-])=O","-5.4668","0.9528999999999999","2","G2","322.243","2.9502000000000006","72.72619999999999","22.0","6.0","1.0","11.0","5.0","122.0","1.0","0.0","0.0","1.0","115.54000000000002","122.15839571247437","3.9266925510258885","614.3352259724758"
"B-2712","benzoximate","InChI=1S/C18H18ClNO5/c1-4-20(25-18(22)12-8-6-5-7-9-12)17(21)15-14(23-2)11-10-13(19)16(15)24-3/h5-11H,4H2,1-3H3","HOERQTQCTISLFR-UHFFFAOYSA-N","CCN(OC(=O)c1ccccc1)C(=O)c2c(OC)ccc(Cl)c2OC","-4.0837","0.0","1","G1","363.797","3.591300000000002","93.12400000000004","25.0","5.0","0.0","7.0","5.0","132.0","2.0","0.0","0.0","2.0","65.07000000000001","150.35896829711186","2.342111865414857","763.5617836423708"
"B-2713","atenolol","InChI=1S/C14H22N2O3/c1-10(2)16-8-12(17)9-19-13-5-3-11(4-6-13)7-14(15)18/h3-6,10,12,16-17H,7-9H2,1-2H3,(H2,15,18)","METKIMKYRPQLGS-UHFFFAOYSA-N","CC(C)NCC(O)COc1ccc(CC(N)=O)cc1","-1.3016","0.27580000000000005","2","G3","266.34099999999995","0.45210000000000006","73.98090000000003","19.0","4.0","3.0","5.0","8.0","106.0","1.0","0.0","0.0","1.0","84.57999999999998","113.30999399703728","2.346203475304779","390.18247960279086"
"B-2714","propanediamide, 2,2-diethyl-","InChI=1S/C7H14N2O2/c1-3-7(4-2,5(8)10)6(9)11/h3-4H2,1-2H3,(H2,8,10)(H2,9,11)","IYZYMNZTUFOYHR-UHFFFAOYSA-N","CCC(CC)(C(N)=O)C(N)=O","-1.1992","0.0","1","G1","158.20099999999996","-0.23660000000000003","41.4038","11.0","2.0","2.0","4.0","4.0","64.0","0.0","0.0","0.0","0.0","86.18","65.93172930832216","4.755466586015747","157.27938714610153"
"B-2715","Mecarphon","InChI=1S/C7H14NO4PS2/c1-8(7(10)11-2)6(9)5-15-13(4,14)12-3/h5H2,1-4H3","PUTUPQVEMBRCAG-UHFFFAOYSA-N","COC(=O)N(C)C(=O)CS[P](C)(=S)OC","-1.9563","0.0","1","G1","271.3","1.5301","64.85100000000003","15.0","6.0","0.0","8.0","4.0","88.0","0.0","0.0","0.0","0.0","55.84","98.3171542789561","4.1585381289277885","296.71477219712375"
"B-2717","hexadecanol","InChI=1S/C16H34O/c1-3-5-6-7-8-9-10-11-12-13-15-16(17)14-4-2/h16-17H,3-15H2,1-2H3","JIMMILCKVYOFET-UHFFFAOYSA-N","CCCCCCCCCCCCC(O)CCC","-6.7708","0.0","1","G1","242.44699999999995","5.458400000000006","77.37580000000007","17.0","1.0","1.0","1.0","13.0","104.0","0.0","0.0","0.0","0.0","20.23","109.0076164959747","2.9813811333652946","133.48686830125578"
"B-2718","1-naphthalenecarboxamide, n-hydroxy-n-phenyl-","InChI=1S/C17H13NO2/c19-17(18(20)14-9-2-1-3-10-14)16-12-6-8-13-7-4-5-11-15(13)16/h1-12,20H","MDPNINYZZKJMBC-UHFFFAOYSA-N","ON(c1ccccc1)C(=O)c2cccc3ccccc23","-3.9433","0.0","1","G1","263.296","3.8758000000000017","78.98600000000003","20.0","2.0","1.0","3.0","2.0","98.0","3.0","0.0","0.0","3.0","40.54","116.20473199361395","2.050760819672157","747.7945663294147"
"B-2719","benzamide, n-hydroxy-n-1-naphthalenyl-","InChI=1S/C17H13NO2/c19-17(14-8-2-1-3-9-14)18(20)16-12-6-10-13-7-4-5-11-15(13)16/h1-12,20H","PZBPQFNCQFUIOP-UHFFFAOYSA-N","ON(C(=O)c1ccccc1)c2cccc3ccccc23","-3.3065","0.0","1","G1","263.29600000000005","3.8758000000000026","78.98600000000005","20.0","2.0","1.0","3.0","2.0","98.0","3.0","0.0","0.0","3.0","40.54","116.20473199361395","2.049692341781129","747.7945663294146"
"B-2720","benzamide, 3,5-dinitro-n-phenyl-n-hydroxy-","InChI=1S/C13H9N3O6/c17-13(14(18)10-4-2-1-3-5-10)9-6-11(15(19)20)8-12(7-9)16(21)22/h1-8,18H","CHBUFRFETPYQCI-UHFFFAOYSA-N","ON(c1ccccc1)C(=O)c2cc(cc(c2)[N+]([O-])=O)[N+]([O-])=O","-3.6367","0.0","1","G1","303.23","2.5390000000000006","74.78880000000001","22.0","6.0","1.0","9.0","4.0","112.0","2.0","0.0","0.0","2.0","126.82000000000002","122.82901890687832","2.4459363196811","714.4455764164542"
"B-2721","acetic acid, [(aminothioxomethyl)thio]-","InChI=1S/C3H5NO2S2/c4-3(7)8-1-2(5)6/h1H2,(H2,4,7)(H,5,6)","KXMZHKOZDQLZMO-UHFFFAOYSA-N","NC(=S)SCC(O)=O","-0.7482","0.0","1","G1","151.21200000000002","0.047800000000000065","36.879200000000004","8.0","3.0","2.0","5.0","2.0","46.0","0.0","0.0","0.0","0.0","63.32","56.24667207844538","3.1818458670936187","99.85105031544944"
"B-2722","glycine, n-(dithiocarboxy)-, n-ester with mercap","InChI=1S/C5H7NO4S2/c7-3(8)1-6-5(11)12-2-4(9)10/h1-2H2,(H,6,11)(H,7,8)(H,9,10)","FKNJURNHJJFOFH-UHFFFAOYSA-N","OC(=O)CNC(=S)SCC(O)=O","-1.3011","0.0","1","G1","209.248","-0.23669999999999997","48.33030000000001","12.0","4.0","3.0","7.0","4.0","68.0","0.0","0.0","0.0","0.0","86.63","78.14228364607371","3.467235170058121","185.62490075425816"
"B-2723","benzamide, n-[2-(1h-imidazol-4-yl)ethyl]-","InChI=1S/C12H13N3O/c16-12(10-4-2-1-3-5-10)14-7-6-11-8-13-9-15-11/h1-5,8-9H,6-7H2,(H,13,15)(H,14,16)","DAUCLDROLUGJDY-UHFFFAOYSA-N","O=C(NCCc1c[nH]cn1)c2ccccc2","-0.634","0.0","1","G1","215.256","1.3821999999999999","61.066900000000025","16.0","2.0","2.0","4.0","4.0","82.0","2.0","0.0","0.0","2.0","57.78","93.72351635436345","1.8058515602791254","436.55213696540903"
"B-2724","isodecyl diphenyl phosphate","InChI=1S/C22H31O4P/c1-20(2)14-8-4-3-5-13-19-24-27(23,25-21-15-9-6-10-16-21)26-22-17-11-7-12-18-22/h6-7,9-12,15-18,20H,3-5,8,13-14,19H2,1-2H3","RYUJRXVZSJCHDZ-UHFFFAOYSA-N","CC(C)CCCCCCCO[P](=O)(Oc1ccccc1)Oc2ccccc2","-5.7165","0.9129292636500002","2","G2","390.46000000000004","7.265700000000007","110.23850000000006","27.0","4.0","0.0","5.0","13.0","148.0","2.0","0.0","0.0","2.0","44.760000000000005","163.02816483252278","1.8204571177531328","627.7268373621044"
"B-2727","ethiofencarb","InChI=1S/C11H15NO2S/c1-3-15-8-9-6-4-5-7-10(9)14-11(13)12-2/h4-7H,3,8H2,1-2H3,(H,12,13)","HEZNVIYQEUHLNI-UHFFFAOYSA-N","CCSCc1ccccc1OC(=O)NC","-2.0927","0.0","1","G1","225.313","2.6579000000000006","63.36170000000004","15.0","3.0","1.0","4.0","4.0","82.0","1.0","0.0","0.0","1.0","38.33","94.20415323000394","2.717126876654733","328.1188895793997"
"B-2728","1,2:3,4-diepoxybutane (2s,3s)","InChI=1S/C4H6O2/c1-3(5-1)4-2-6-4/h3-4H,1-2H2/t3-,4-/m0/s1","ZFIVKAOQEXOYFY-IMJSIDKUSA-N","C1O[C@@H]1[C@@H]2CO2","1.065","0.0","1","G1","86.09","-0.21599999999999997","19.479999999999997","6.0","2.0","0.0","2.0","1.0","34.0","0.0","2.0","2.0","2.0","25.06","36.04950552297468","1.9155467020454342","53.94833690207419"
"B-2729","ethidimuron","InChI=1S/C7H12N4O3S2/c1-4-16(13,14)7-10-9-6(15-7)11(3)5(12)8-2/h4H2,1-3H3,(H,8,12)","KCOCSOWTADCKOL-UHFFFAOYSA-N","CC[S](=O)(=O)c1sc(nn1)N(C)C(=O)NC","-1.945","0.0","1","G1","264.332","0.1073","60.49450000000002","16.0","6.0","1.0","9.0","3.0","90.0","1.0","0.0","0.0","1.0","92.26","97.40084282783103","3.0029010418899187","481.5763082605954"
"B-2730","propanoic acid, 2-(2,4,5-trichlorophenoxy)-, (r)","InChI=1S/C9H7Cl3O3/c1-4(9(13)14)15-8-3-6(11)5(10)2-7(8)12/h2-4H,1H3,(H,13,14)/t4-/m1/s1","ZLSWBLPERHFHIS-SCSAIBSYSA-N","C[C@@H](Oc1cc(Cl)c(Cl)cc1Cl)C(O)=O","-3.1295","0.0","1","G1","269.511","3.4987000000000013","59.197800000000015","15.0","2.0","1.0","6.0","3.0","82.0","1.0","0.0","0.0","1.0","46.53","101.50532922507847","2.9526811232485635","392.4341135811158"
"B-2731","2-furanol, 5-ethyltetrahydro-","InChI=1S/C6H12O2/c1-2-5-3-4-6(7)8-5/h5-7H,2-4H2,1H3","VPPOYUGGWUIGDG-UHFFFAOYSA-N","CCC1CCC(O)O1","-0.0651","0.0","1","G1","116.15999999999998","0.8937999999999999","30.404799999999984","8.0","2.0","1.0","2.0","1.0","48.0","0.0","1.0","1.0","1.0","29.46","49.46590942798625","2.218336754489984","72.92878689342031"
"B-2732","1,2:3,4-diepoxybutane (2r,3r)","InChI=1S/C4H6O2/c1-3(5-1)4-2-6-4/h3-4H,1-2H2/t3-,4-/m1/s1","ZFIVKAOQEXOYFY-QWWZWVQMSA-N","C1O[C@H]1[C@H]2CO2","1.065","0.0","1","G1","86.09","-0.21599999999999997","19.479999999999997","6.0","2.0","0.0","2.0","1.0","34.0","0.0","2.0","2.0","2.0","25.06","36.04950552297468","1.9155467020454342","53.94833690207419"
"B-2733","1,6-dioxaspiro[4,4]nonane, 2,7-dimethyl-","InChI=1S/C9H16O2/c1-7-3-5-9(10-7)6-4-8(2)11-9/h7-8H,3-6H2,1-2H3","PUKTVFNQVGOXPI-UHFFFAOYSA-N","CC1CCC2(CCC(C)O2)O1","-0.4487","0.0","1","G1","156.225","2.0805","42.29300000000001","11.0","2.0","0.0","2.0","0.0","64.0","0.0","2.0","2.0","2.0","18.46","67.8742160949577","2.017857381506242","137.64172284395272"
"B-2734","thymidine, 3'-azido-3'-deoxy-","InChI=1S/C10H13N5O4/c1-5-3-15(10(18)12-9(5)17)8-2-6(13-14-11)7(4-16)19-8/h3,6-8,16H,2,4H2,1H3,(H,12,17,18)/t6-,7+,8+/m0/s1","HBOMLICNUCNMMY-XLPZGREQSA-N","CC1=CN([C@H]2C[C@H](N=[N+]=[N-])[C@@H](CO)O2)C(=O)NC1=O","-1.1221","0.0","1","G1","267.245","-0.19628000000000012","64.60650000000003","19.0","6.0","2.0","9.0","3.0","102.0","1.0","1.0","1.0","2.0","133.07999999999998","106.62903730140096","2.3418569370217903","629.5425620141572"
"B-2735","etofenamate","InChI=1S/C18H18F3NO4/c19-18(20,21)13-4-3-5-14(12-13)22-16-7-2-1-6-15(16)17(24)26-11-10-25-9-8-23/h1-7,12,22-23H,8-11H2","XILVEPYQJIOVNB-UHFFFAOYSA-N","OCCOCCOC(=O)c1ccccc1Nc2cccc(c2)C(F)(F)F","-5.3633","0.0","1","G1","369.33900000000006","3.6147000000000027","89.35600000000004","26.0","5.0","2.0","8.0","8.0","140.0","2.0","0.0","0.0","2.0","67.78999999999999","147.90746471558094","2.0800431683515277","734.371299421136"
"B-2736","pteridine, 4-methoxy-","InChI=1S/C7H6N4O/c1-12-7-5-6(10-4-11-7)9-3-2-8-5/h2-4H,1H3","KCCOKUSVNPDIBJ-UHFFFAOYSA-N","COc1ncnc2nccnc12","-1.113","0.0","1","G1","162.15200000000002","0.4283999999999998","41.68000000000001","12.0","5.0","0.0","5.0","1.0","60.0","2.0","0.0","0.0","2.0","60.790000000000006","68.47014691892171","2.7909670297392646","398.0334383297276"
"B-2737","zolone","InChI=1S/C12H16NO4PS2/c1-3-15-18(19,16-4-2)20-9-13-10-7-5-6-8-11(10)17-12(13)14/h5-8H,3-4,9H2,1-2H3","YAAFKGCBOCRHIF-UHFFFAOYSA-N","CCO[P](=S)(OCC)SCN1C(=O)Oc2ccccc12","-5.1905","0.0","1","G1","333.37100000000004","3.5827000000000018","85.60200000000003","20.0","7.0","0.0","8.0","7.0","110.0","2.0","0.0","0.0","2.0","53.6","125.7152920074609","2.2180333944982813","671.3923135374083"
"B-2738","benzo(a)fluorene","InChI=1S/C17H12/c1-3-7-14-12(5-1)9-10-16-15-8-4-2-6-13(15)11-17(14)16/h1-10H,11H2","HKMTVMBEALTRRR-UHFFFAOYSA-N","C1c2ccccc2c3ccc4ccccc4c13","-6.678","0.0","1","G1","216.283","4.411000000000003","72.19000000000004","17.0","0.0","0.0","0.0","0.0","80.0","3.0","0.0","1.0","4.0","0.0","100.52927281816358","2.108386555401141","722.9398740759323"
"B-2740","Methacrifos","InChI=1S/C7H13O5PS/c1-6(7(8)9-2)5-12-13(14,10-3)11-4/h5H,1-4H3/b6-5+","NTAHCMPOMKHKEU-AATRIKPKSA-N","COC(=O)C(/C)=C/O[P](=S)(OC)OC","-2.7785","0.0","1","G1","240.21699999999998","1.5970999999999997","55.16100000000003","14.0","6.0","0.0","7.0","5.0","82.0","0.0","0.0","0.0","0.0","53.99000000000001","88.23493180330921","4.409580422877201","267.25371961519227"
"B-2741","cafaminol","InChI=1S/C11H17N5O3/c1-13(5-6-17)10-12-8-7(14(10)2)9(18)16(4)11(19)15(8)3/h17H,5-6H2,1-4H3","ZGNRRVAPHPANFI-UHFFFAOYSA-N","CN(CCO)c1nc2N(C)C(=O)N(C)C(=O)c2n1C","-0.6488","0.0","1","G1","267.289","-1.6007999999999987","71.55180000000003","19.0","8.0","1.0","8.0","3.0","104.0","2.0","0.0","0.0","2.0","85.28999999999999","108.67785078373853","2.8473944073478066","739.3393312866176"
"B-2742","isocarbamid","InChI=1S/C8H15N3O2/c1-6(2)5-10-8(13)11-4-3-9-7(11)12/h6H,3-5H2,1-2H3,(H,9,12)(H,10,13)","SBYAVOHNDJTVPA-UHFFFAOYSA-N","CC(C)CNC(=O)N1CCNC1=O","-2.1538","0.0","1","G1","185.22699999999998","0.3772000000000003","48.34140000000002","13.0","2.0","2.0","5.0","2.0","74.0","0.0","1.0","1.0","1.0","61.440000000000005","77.47061691258357","2.343705379279258","215.43467881229333"
"B-2743","3(2h)-thiazoleacetic acid, 4-methyl-2-thioxo-","InChI=1S/C6H7NO2S2/c1-4-3-11-6(10)7(4)2-5(8)9/h3H,2H2,1H3,(H,8,9)","FVQQWSSTYVBNST-UHFFFAOYSA-N","CC1=CSC(=S)N1CC(O)=O","-1.9632","0.0","1","G1","189.261","1.6721100000000002","45.515800000000006","11.0","4.0","1.0","5.0","2.0","60.0","1.0","0.0","0.0","1.0","42.230000000000004","72.91074830008479","3.0140767554363426","325.56842823805096"
"B-2744","metrizamide","InChI=1S/C18H22I3N3O8/c1-5(26)22-12-9(19)8(10(20)14(11(12)21)24(3)6(2)27)17(30)23-13-16(29)15(28)7(4-25)32-18(13)31/h7,13,15-16,18,25,28-29,31H,4H2,1-3H3,(H,22,26)(H,23,30)/t7?,13?,15-,16?,18+/m1/s1","BAQCROVBDNBEEB-OPRFMTNSSA-N","CN(C(C)=O)c1c(I)c(NC(C)=O)c(I)c(C(=O)NC2[C@@H](O)OC(CO)[C@@H](O)C2O)c1I","-0.1982","0.0","1","G1","789.0990000000004","-0.028800000000000436","139.21409999999997","32.0","8.0","6.0","14.0","5.0","178.0","1.0","1.0","1.0","2.0","168.66","224.22499627769957","2.5571286013120385","931.4663405873947"
"B-2745","propetamphos","InChI=1S/C10H20NO4PS/c1-6-11-16(17,13-5)15-9(4)7-10(12)14-8(2)3/h7-8H,6H2,1-5H3,(H,11,17)/b9-7-","BZNDWPRGXNILMS-CLFYSBASSA-N","CCN[P](=S)(OC)OC(/C)=C\C(=O)OC(C)C","-3.4078","0.0","1","G1","281.314","2.3388","71.04070000000003","17.0","5.0","1.0","7.0","7.0","100.0","0.0","0.0","0.0","0.0","56.790000000000006","107.73561421823096","4.503497672294196","330.2675873523821"
"B-2746","3-methyl-2-heptanol","InChI=1S/C8H18O/c1-4-5-6-7(2)8(3)9/h7-9H,4-6H2,1-3H3","SZERMVMTUUAYML-UHFFFAOYSA-N","CCCCC(C)C(C)O","-2.0578","0.16889999999999994","2","G3","130.231","2.1935000000000007","40.369800000000005","9.0","1.0","1.0","1.0","4.0","56.0","0.0","0.0","0.0","0.0","20.23","58.08807958080181","3.1552800835051924","59.58797503894244"
"B-2748","benzo[a]pyrene, 5-methyl-","InChI=1S/C21H14/c1-13-11-16-7-4-6-14-9-10-18-17-8-3-2-5-15(17)12-19(13)21(18)20(14)16/h2-12H,1H3","JQANOYBJRYYFQI-UHFFFAOYSA-N","Cc1cc2cccc3ccc4c5ccccc5cc1c4c23","-8.5224","0.0","1","G1","266.343","6.045620000000003","92.38900000000005","21.0","0.0","0.0","0.0","0.0","98.0","5.0","0.0","0.0","5.0","0.0","122.50202824096998","2.2473061361713116","1132.5000637406122"