"ID","Name","InChI","InChIKey","SMILES","Solubility","SD","Ocurrences","Group","MolWt","MolLogP","MolMR","HeavyAtomCount","NumHAcceptors","NumHDonors","NumHeteroatoms","NumRotatableBonds","NumValenceElectrons","NumAromaticRings","NumSaturatedRings","NumAliphaticRings","RingCount","TPSA","LabuteASA","BalabanJ","BertzCT"
"B-2749","lyral","InChI=1S/C13H22O2/c1-13(2,15)9-3-4-11-5-7-12(10-14)8-6-11/h5,10,12,15H,3-4,6-9H2,1-2H3","ORMHZBNNECIKOH-UHFFFAOYSA-N","CC(C)(O)CCCC1=CCC(CC1)C=O","-1.5376","0.0","1","G1","210.31699999999998","2.8530000000000015","61.636800000000044","15.0","2.0","1.0","2.0","5.0","86.0","0.0","0.0","1.0","1.0","37.3","92.37887806711514","2.231519597710934","235.41073293730346"
"B-2750","heptachloronaphthalene","InChI=1S/C10HCl7/c11-2-1-3(12)6(13)5-4(2)7(14)9(16)10(17)8(5)15/h1H","QYEGXUUXWMKHHS-UHFFFAOYSA-N","Clc1cc(Cl)c2c(Cl)c(Cl)c(Cl)c(Cl)c2c1Cl","-8.775","0.0","1","G1","369.2890000000001","7.4136","79.018","17.0","0.0","0.0","7.0","0.0","90.0","2.0","0.0","0.0","2.0","0.0","132.23593123940384","3.16510241661846","632.8126224571631"
"B-2751","divicine","InChI=1S/C4H6N4O2/c5-2-1(9)3(10)8-4(6)7-2/h2H,5H2,(H3,6,7,8,10)","NVANETMVFYSFSK-UHFFFAOYSA-N","NC1N=C(N)NC(=O)C1=O","-1.6978","0.0","1","G1","142.118","-2.7152000000000003","32.7475","10.0","5.0","3.0","6.0","0.0","54.0","0.0","0.0","1.0","1.0","110.57","56.276256481071265","2.891437679339084","221.29748098348915"
"B-2752","2-furoic acid, 3,4,5-trichloro-","InChI=1S/C5HCl3O3/c6-1-2(7)4(8)11-3(1)5(9)10/h(H,9,10)","WKDGIASDCHPIDT-UHFFFAOYSA-N","OC(=O)c1oc(Cl)c(Cl)c1Cl","-2.2193","0.0","1","G1","215.419","2.9379999999999997","40.6973","11.0","2.0","1.0","6.0","1.0","60.0","1.0","0.0","0.0","1.0","50.44","76.4562290308552","3.2945798128540176","304.16644163375247"
"B-2753","9-octadecenoic acid, 12-(sulfooxy)-, (z)-","InChI=1S/C18H34O6S/c1-2-3-4-11-14-17(24-25(21,22)23)15-12-9-7-5-6-8-10-13-16-18(19)20/h9,12,17H,2-8,10-11,13-16H2,1H3,(H,19,20)(H,21,22,23)/b12-9-","CYKFQSXTIVGYDT-XFXZXTDPSA-N","CCCCCCC(C\C=C/CCCCCCCC(O)=O)O[S](O)(=O)=O","-0.5781","0.0","1","G1","378.531","4.906400000000003","98.89240000000008","25.0","4.0","2.0","7.0","17.0","148.0","0.0","0.0","0.0","0.0","100.9","152.16060490823298","3.856793660217174","458.18674861846006"
"B-2754","4-quinolinecarboxylic acid, 1,2-dihydro-6-methox","InChI=1S/C11H9NO4/c1-16-6-2-3-9-7(4-6)8(11(14)15)5-10(13)12-9/h2-5H,1H3,(H,12,13)(H,14,15)/p-1","ATQXNYQCZFMIKY-UHFFFAOYSA-M","COc1ccc2NC(=O)C=C(C([O-])=O)c2c1","-3.1104","0.0","1","G1","218.188","-0.0998000000000005","55.45120000000001","16.0","4.0","1.0","5.0","2.0","82.0","2.0","0.0","0.0","2.0","82.22","90.29342304276233","2.8550917455198594","614.900939076659"
"B-2755","d-glucuronic acid, .gamma.-lactone","InChI=1S/C6H8O6/c7-1-2(8)5-3(9)4(10)6(11)12-5/h1-5,8-10H/t2-,3+,4-,5+/m0/s1","UYUXSRADSPPKRZ-SKNVOMKLSA-N","O[C@@H](C=O)[C@H]1OC(=O)[C@@H](O)[C@H]1O","0.1641","0.0","1","G1","176.12400000000002","-2.8066","33.9644","12.0","6.0","3.0","6.0","2.0","68.0","0.0","1.0","1.0","1.0","104.06","67.37742113246578","2.698677589881441","202.21499122004107"
"B-2756","2-furancarboxylic acid, 3,4-dibromo-","InChI=1S/C5H2Br2O3/c6-2-1-10-4(3(2)7)5(8)9/h1H,(H,8,9)","ISBXWVSYAWHMSU-UHFFFAOYSA-N","OC(=O)c1occ(Br)c1Br","-2.0887","0.0","1","G1","269.876","2.5027999999999997","41.067299999999996","10.0","2.0","1.0","5.0","1.0","54.0","1.0","0.0","0.0","1.0","50.44","73.28152556149291","3.1737923196144764","265.8568215166631"
"B-2757","succinamic acid, 3-amino-2-hydroxy-","InChI=1S/C4H8N2O4/c5-1(3(6)8)2(7)4(9)10/h1-2,7H,5H2,(H2,6,8)(H,9,10)","XTAAXERUXNEDCQ-UHFFFAOYSA-N","NC(C(O)C(O)=O)C(N)=O","-1.1494","0.0","1","G1","148.11799999999997","-2.755500000000001","30.812400000000004","10.0","4.0","4.0","6.0","3.0","58.0","0.0","0.0","0.0","0.0","126.64000000000001","56.42537046952435","4.069511908932011","139.33658100079688"
"B-2758","2(1h)-pyrimidinone, 4-amino-5-ethyl-","InChI=1S/C6H9N3O/c1-2-4-3-8-6(10)9-5(4)7/h3H,2H2,1H3,(H3,7,8,9,10)","CZJGCEGNCSGRBI-UHFFFAOYSA-N","CCC1=CNC(=O)N=C1N","-1.0197","0.0","1","G1","139.15799999999996","-0.08550000000000002","38.64809999999999","10.0","3.0","2.0","4.0","1.0","54.0","1.0","0.0","0.0","1.0","71.77","58.101996107239685","3.194770634674176","278.5665722044581"
"B-2760","2,3,3',4,4'-pentachloro-1,1'-biphenyl","InChI=1S/C12H5Cl5/c13-8-3-1-6(5-10(8)15)7-2-4-9(14)12(17)11(7)16/h1-5H","WIDHRBRBACOVOY-UHFFFAOYSA-N","Clc1ccc(cc1Cl)c2ccc(Cl)c(Cl)c2Cl","-7.9823","0.5111743103438942","3","G4","326.437","6.6206000000000005","76.92800000000003","17.0","0.0","0.0","5.0","1.0","88.0","2.0","0.0","0.0","2.0","0.0","124.00482845996933","2.6073765825410655","577.348938365776"
"B-2761","1,2-dithiane-3,6-dicarboxylic acid, trans-","InChI=1S/C6H8O4S2/c7-5(8)3-1-2-4(6(9)10)12-11-3/h3-4H,1-2H2,(H,7,8)(H,9,10)/t3-,4-/m1/s1","NQRRVGBUZRSXRF-QWWZWVQMSA-N","OC(=O)[C@H]1CC[C@@H](SS1)C(O)=O","-1.5241","0.0","1","G1","208.26000000000002","1.0679999999999998","47.26360000000001","12.0","4.0","2.0","6.0","2.0","68.0","0.0","1.0","1.0","1.0","74.6","77.11582428784307","2.3927770801931003","175.72476622436804"
"B-2762","3,3',4,4',5,5'-pcb","InChI=1S/C12H4Cl6/c13-7-1-5(2-8(14)11(7)17)6-3-9(15)12(18)10(16)4-6/h1-4H","ZHLICBPIXDOFFG-UHFFFAOYSA-N","Clc1cc(cc(Cl)c1Cl)c2cc(Cl)c(Cl)c(Cl)c2","-8.8498","0.0","1","G1","360.88200000000006","7.274000000000001","81.938","18.0","0.0","0.0","6.0","1.0","94.0","2.0","0.0","0.0","2.0","0.0","134.308094686851","2.625182066053657","518.4500798683472"
"B-2763","procymidone","InChI=1S/C13H11Cl2NO2/c1-12-6-13(12,2)11(18)16(10(12)17)9-4-7(14)3-8(15)5-9/h3-5H,6H2,1-2H3","QXJKBPAVAHBARF-UHFFFAOYSA-N","CC12CC1(C)C(=O)N(C2=O)c3cc(Cl)cc(Cl)c3","-4.8003","0.0","1","G1","284.142","3.2829000000000024","69.78600000000003","18.0","2.0","0.0","5.0","1.0","94.0","1.0","2.0","2.0","3.0","37.38","114.66374593726901","2.090283905345448","554.4040824461514"
"B-2764","m-bromocinnamic acid","InChI=1S/C9H7BrO2/c10-8-3-1-2-7(6-8)4-5-9(11)12/h1-6H,(H,11,12)/b5-4+","YEMUSDCFQUBPAL-SNAWJCMRSA-N","OC(=O)/C=C/c1cccc(Br)c1","-2.636","0.0","1","G1","227.057","2.546900000000001","50.81180000000002","12.0","1.0","1.0","3.0","2.0","62.0","1.0","0.0","0.0","1.0","37.3","78.65992988838367","2.826395262966909","318.05950344595533"
"B-2765","amitraz","InChI=1S/C19H23N3/c1-14-6-8-18(16(3)10-14)20-12-22(5)13-21-19-9-7-15(2)11-17(19)4/h6-13H,1-5H3","QXAITBQSYVNQDR-UHFFFAOYSA-N","CN(C=Nc1ccc(C)cc1C)C=Nc2ccc(C)cc2C","-5.4675","0.6487500000000002","2","G2","293.41400000000004","4.871880000000004","95.89900000000004","22.0","2.0","0.0","3.0","4.0","114.0","2.0","0.0","0.0","2.0","27.96","132.59357076826086","2.0683644020981955","653.1153896300215"
"B-2766","1,1'-biphenyl, 2,2',3,3',4,4',6,6'-octachloro-","InChI=1S/C12H2Cl8/c13-3-1-5(15)9(17)11(19)7(3)8-4(14)2-6(16)10(18)12(8)20/h1-2H","YPDBBDKYNWRFMF-UHFFFAOYSA-N","Clc1cc(Cl)c(c(Cl)c1Cl)c2c(Cl)cc(Cl)c(Cl)c2Cl","-9.1","0.0","1","G1","429.77200000000016","8.580799999999998","91.95799999999998","20.0","0.0","0.0","8.0","1.0","106.0","2.0","0.0","0.0","2.0","0.0","154.91462714061439","2.895968700830221","646.0791147319976"
"B-2767","2-ethylacetanilide","InChI=1S/C10H13NO/c1-3-9-6-4-5-7-10(9)11-8(2)12/h4-7H,3H2,1-2H3,(H,11,12)","ZXOVAGUQXNXKHF-UHFFFAOYSA-N","CCc1ccccc1NC(C)=O","-1.5906","0.0","1","G1","163.21999999999997","2.2074","50.12370000000003","12.0","1.0","1.0","2.0","2.0","64.0","1.0","0.0","0.0","1.0","29.1","72.60255586073521","2.8889412995372648","280.9219978261821"
"B-2768","endosulfan (beta)","InChI=1S/C9H6Cl6O3S/c10-5-6(11)8(13)4-2-18-19(16)17-1-3(4)7(5,12)9(8,14)15/h3-4H,1-2H2/t3-,4+,7-,8?,19?/m0/s1","RDYMFSUJUZBWLH-VQDHCCOSSA-N","ClC1=C(Cl)C2(Cl)[C@@H]3CO[S](=O)OC[C@@H]3[C@@]1(Cl)C2(Cl)Cl","-5.9563","0.0","1","G1","406.9290000000001","3.689800000000001","77.36340000000001","19.0","3.0","0.0","10.0","0.0","108.0","0.0","2.0","3.0","3.0","35.53","141.7906412262262","2.187726044332392","470.1834139056276"
"B-2769","fluchloralin","InChI=1S/C12H13ClF3N3O4/c1-2-4-17(5-3-13)11-9(18(20)21)6-8(12(14,15)16)7-10(11)19(22)23/h6-7H,2-5H2,1H3","MNFMIVVPXOGUMX-UHFFFAOYSA-N","CCCN(CCCl)c1c(cc(cc1[N+]([O-])=O)C(F)(F)F)[N+]([O-])=O","-5.5968","0.5228999999999999","2","G2","355.70000000000005","3.977000000000003","77.97680000000001","23.0","5.0","0.0","11.0","7.0","128.0","1.0","0.0","0.0","1.0","89.51999999999998","133.48671335673995","3.699377936225601","568.699086225864"
"B-2770","3,3',5,5'-tetrachlorobiphenyl","InChI=1S/C12H6Cl4/c13-9-1-7(2-10(14)5-9)8-3-11(15)6-12(16)4-8/h1-6H","UTMWFJSRHLYRPY-UHFFFAOYSA-N","Clc1cc(Cl)cc(c1)c2cc(Cl)cc(Cl)c2","-8.3748","0.08259999999999934","2","G3","291.992","5.967200000000002","71.918","16.0","0.0","0.0","4.0","1.0","82.0","2.0","0.0","0.0","2.0","0.0","113.70156223308767","2.5749093159100207","444.53712407405914"
"B-2771","2,3,5,6-tetrachlorobiphenyl","InChI=1S/C12H6Cl4/c13-8-6-9(14)12(16)10(11(8)15)7-4-2-1-3-5-7/h1-6H","BLAYIQLVUNIICD-UHFFFAOYSA-N","Clc1cc(Cl)c(Cl)c(c2ccccc2)c1Cl","-7.25","0.0","1","G1","291.9920000000001","5.967200000000002","71.918","16.0","0.0","0.0","4.0","1.0","82.0","2.0","0.0","0.0","2.0","0.0","113.7015622330877","2.740855577250552","494.03712407405914"
"B-2773","butralin","InChI=1S/C14H21N3O4/c1-6-9(2)15-13-11(16(18)19)7-10(14(3,4)5)8-12(13)17(20)21/h7-9,15H,6H2,1-5H3","SPNQRCTZKIBOAX-UHFFFAOYSA-N","CCC(C)Nc1c(cc(cc1[N+]([O-])=O)C(C)(C)C)[N+]([O-])=O","-5.4703","0.0","1","G1","295.339","4.010900000000003","81.82650000000002","21.0","5.0","1.0","7.0","5.0","116.0","1.0","0.0","0.0","1.0","98.31","123.20675366327745","3.588145946501451","528.8229269026048"
"B-2774","ethanone, 1-(3,4,5-trihydroxyphenyl)-","InChI=1S/C8H8O4/c1-4(9)5-2-6(10)8(12)7(11)3-5/h2-3,10-12H,1H3","IBKQQKPQRYUGBJ-UHFFFAOYSA-N","CC(=O)c1cc(O)c(O)c(O)c1","-1.4711","0.0","1","G1","168.14799999999997","1.0059999999999998","41.44090000000002","12.0","4.0","3.0","4.0","1.0","64.0","1.0","0.0","0.0","1.0","77.76","68.70551070492198","3.306535412749064","306.8248996548373"
"B-2775","isopropalin","InChI=1S/C15H23N3O4/c1-5-7-16(8-6-2)15-13(17(19)20)9-12(11(3)4)10-14(15)18(21)22/h9-11H,5-8H2,1-4H3","NEKOXWSIMFDGMA-UHFFFAOYSA-N","CCCN(CCC)c1c(cc(cc1[N+]([O-])=O)C(C)C)[N+]([O-])=O","-6.4491","0.0204500000000003","2","G3","309.36600000000004","4.252800000000004","86.63480000000003","22.0","5.0","0.0","7.0","8.0","122.0","1.0","0.0","0.0","1.0","89.51999999999998","129.78166726426937","3.6210484465888126","516.7136957630747"
"B-2776","phosphorohydrazidic acid, diphenyl ester","InChI=1S/C12H13N2O3P/c13-14-18(15,16-11-7-3-1-4-8-11)17-12-9-5-2-6-10-12/h1-10H,13H2,(H,14,15)","OTRWTWZSLKFJGX-UHFFFAOYSA-N","NN[P](=O)(Oc1ccccc1)Oc2ccccc2","-2.2373","0.0","1","G1","264.221","2.7158000000000007","69.06960000000004","18.0","4.0","2.0","6.0","5.0","94.0","2.0","0.0","0.0","2.0","73.58","105.09462647753638","2.1376638619969057","488.03349097656104"
"B-2778","methyl phenylsulfonyl acetate","InChI=1S/C9H10O4S/c1-13-9(10)7-14(11,12)8-5-3-2-4-6-8/h2-6H,7H2,1H3","NLEAIFBNKPYTGN-UHFFFAOYSA-N","COC(=O)C[S](=O)(=O)c1ccccc1","-1.1406","0.0","1","G1","214.24200000000002","0.6333000000000001","50.51080000000003","14.0","4.0","0.0","5.0","3.0","76.0","1.0","0.0","0.0","1.0","60.440000000000005","82.42669517402405","2.928226466735241","407.6979116691517"
"B-2779","l-alanine, n-[(ethylthio)thioxomethyl]-","InChI=1S/C6H11NO2S2/c1-3-11-6(10)7-4(2)5(8)9/h4H,3H2,1-2H3,(H,7,10)(H,8,9)/t4-/m0/s1","WCIZDTOYENGUEG-BYPYZUCNSA-N","CCSC(=S)N[C@@H](C)C(O)=O","-0.9613","0.0","1","G1","193.293","1.0871","50.96350000000002","11.0","3.0","2.0","5.0","3.0","64.0","0.0","0.0","0.0","0.0","49.33","75.55146990823054","3.6598886651041704","160.66127285260654"
"B-2780","1,2,3-benzenetricarboxylic acid, 5-bromo-","InChI=1S/C9H5BrO6/c10-3-1-4(7(11)12)6(9(15)16)5(2-3)8(13)14/h1-2H,(H,11,12)(H,13,14)(H,15,16)","JSTKTNCNRDMHRQ-UHFFFAOYSA-N","OC(=O)c1cc(Br)cc(C(O)=O)c1C(O)=O","-1.4481","0.0","1","G1","289.03700000000003","1.5436999999999999","55.0199","16.0","3.0","3.0","7.0","3.0","84.0","1.0","0.0","0.0","1.0","111.9","97.2610446250475","3.6715095917744094","457.76773203093444"
"B-2781","1,1-bis(p-meo-ph)-2-nitropropane","InChI=1S/C17H19NO4/c1-12(18(19)20)17(13-4-8-15(21-2)9-5-13)14-6-10-16(22-3)11-7-14/h4-12,17H,1-3H3","PFPRAVYUXJWMGK-UHFFFAOYSA-N","COc1ccc(cc1)C(C(C)[N+]([O-])=O)c2ccc(OC)cc2","-4.5446","0.0","1","G1","301.34200000000004","3.5009000000000023","84.28740000000005","22.0","4.0","0.0","5.0","6.0","116.0","2.0","0.0","0.0","2.0","61.599999999999994","129.19327407905757","2.4199933677152","574.6121268665264"
"B-2782","dimefuron","InChI=1S/C15H19ClN4O3/c1-15(2,3)12-18-20(14(22)23-12)11-7-6-9(8-10(11)16)17-13(21)19(4)5/h6-8H,1-5H3,(H,17,21)","DHWRNDJOGMTCPB-UHFFFAOYSA-N","CN(C)C(=O)Nc1ccc(N2N=C(OC2=O)C(C)(C)C)c(Cl)c1","-4.3258","0.0","1","G1","338.7950000000001","2.8699000000000012","88.51570000000002","23.0","5.0","1.0","8.0","2.0","124.0","2.0","0.0","0.0","2.0","80.37","138.39114868808775","2.371095244437111","786.7501690547151"
"B-2783","cumylphenyl diphenyl phosphate","InChI=1S/C27H25O4P/c1-21(2)23-18-24(22-12-6-3-7-13-22)20-27(19-23)31-32(28,29-25-14-8-4-9-15-25)30-26-16-10-5-11-17-26/h3-21H,1-2H3","KMLCDKUGVGTGBJ-UHFFFAOYSA-N","CC(C)c1cc(O[P](=O)(Oc2ccccc2)Oc3ccccc3)cc(c1)c4ccccc4","-6.8485","0.0","1","G1","444.4670000000001","8.121900000000007","128.3415","32.0","4.0","0.0","5.0","8.0","162.0","4.0","0.0","0.0","4.0","44.760000000000005","188.5877584438746","1.7208848299528194","1146.7811912285329"
"B-2784","2-propenoic acid, 7-bromo-5-chloro-8-quinolinyl","InChI=1S/C12H7BrClNO2/c1-2-10(16)17-12-8(13)6-9(14)7-4-3-5-15-11(7)12/h2-6H,1H2","YDNLKBDXQCHOTH-UHFFFAOYSA-N","Clc1cc(Br)c(OC(=O)C=C)c2ncccc12","-4.7168","0.0","1","G1","312.55","3.7421000000000015","70.28500000000001","17.0","3.0","0.0","5.0","2.0","86.0","2.0","0.0","0.0","2.0","39.19","111.18382010525792","2.6857347800330613","612.7222724681442"
"B-2786","dipropylene glycol methyl ether","InChI=1S/C7H16O3/c1-6(4-8)10-5-7(2)9-3/h6-8H,4-5H2,1-3H3","CUDYYMUUJHLCGZ-UHFFFAOYSA-N","COC(C)COC(C)CO","0.8292","1.50002703225","2","G2","148.202","0.4186999999999999","38.9708","10.0","3.0","1.0","3.0","5.0","62.0","0.0","0.0","0.0","0.0","38.69","61.950227925418965","3.1681741287467013","65.25147089005418"
"B-2787","orbencarb","InChI=1S/C12H16ClNOS/c1-3-14(4-2)12(15)16-9-10-7-5-6-8-11(10)13/h5-8H,3-4,9H2,1-2H3","LLLFASISUZUJEQ-UHFFFAOYSA-N","CCN(CC)C(=O)SCc1ccccc1Cl","-4.031000000000001","0.0","1","G1","257.786","4.035000000000004","71.06400000000004","16.0","2.0","0.0","4.0","4.0","88.0","1.0","0.0","0.0","1.0","20.310000000000002","105.96878782837068","2.517561791459273","352.6269263952092"
"B-2788","prothiophos","InChI=1S/C11H15Cl2O2PS2/c1-3-7-18-16(17,14-4-2)15-11-6-5-9(12)8-10(11)13/h5-6,8H,3-4,7H2,1-2H3","FITIWKDOCAUBQD-UHFFFAOYSA-N","CCCS[P](=S)(OCC)Oc1ccc(Cl)cc1Cl","-6.693","0.0","1","G1","345.25300000000004","5.776400000000003","85.75000000000004","18.0","4.0","0.0","7.0","7.0","102.0","1.0","0.0","0.0","1.0","18.46","127.25468909782658","2.8510032626884056","443.0514311382"
"B-2789","butocarboxim","InChI=1S/C7H14N2O2S/c1-5(6(2)12-4)9-11-7(10)8-3/h6H,1-4H3,(H,8,10)/b9-5-","SFNPDDSJBGRXLW-UITAMQMPSA-N","CNC(=O)O\N=C(\C)C(C)SC","-0.7353","0.0","1","G1","190.268","1.4698","51.62670000000003","12.0","4.0","1.0","5.0","3.0","70.0","0.0","0.0","0.0","0.0","50.69","76.72630423807122","3.912237963056304","182.24518934974515"
"B-2790","butoxycarboxim","InChI=1S/C7H14N2O4S/c1-5(6(2)14(4,11)12)9-13-7(10)8-3/h6H,1-4H3,(H,8,10)/b9-5+","CTJBHIROCMPUKL-WEVVVXLNSA-N","CNC(=O)O\N=C(/C)C(C)[S](C)(=O)=O","-0.0267","0.0","1","G1","222.266","0.15139999999999998","52.95550000000003","14.0","5.0","1.0","7.0","3.0","82.0","0.0","0.0","0.0","0.0","84.82999999999998","83.22859259449255","4.473265368176582","333.5989576594264"
"B-2791","heptenophos","InChI=1S/C9H12ClO4P/c1-12-15(11,13-2)14-9-7-4-3-6(7)5-8(9)10/h3-4,6-7H,5H2,1-2H3","BFESKOTYBVOOQX-UHFFFAOYSA-N","CO[P](=O)(OC)OC1=C(Cl)CC2C=CC12","-2.0566","0.0","1","G1","250.618","3.060200000000002","56.32550000000002","15.0","4.0","0.0","6.0","4.0","84.0","0.0","0.0","2.0","2.0","44.760000000000005","93.46143216145283","2.1471299607869607","368.30863402499347"
"B-2792","acetic acid, 2,2',2''-[methylidynetris(thio)]tri","InChI=1S/C7H10O6S3/c8-4(9)1-14-7(15-2-5(10)11)16-3-6(12)13/h7H,1-3H2,(H,8,9)(H,10,11)(H,12,13)","ZBNBQISDCFIEQC-UHFFFAOYSA-N","OC(=O)CSC(SCC(O)=O)SCC(O)=O","-1.4243","0.0","1","G1","286.352","0.7233999999999999","64.06940000000002","16.0","6.0","3.0","9.0","9.0","92.0","0.0","0.0","0.0","0.0","111.9","104.16550134702427","3.9848881650459993","226.05379063646248"
"B-2793","2,2',3,4,4',5,5'-heptachlorobiphenyl","InChI=1S/C12H3Cl7/c13-6-3-8(15)7(14)1-4(6)5-2-9(16)11(18)12(19)10(5)17/h1-3H","WBHQEUPUMONIKF-UHFFFAOYSA-N","Clc1cc(Cl)c(cc1Cl)c2cc(Cl)c(Cl)c(Cl)c2Cl","-8.0115","0.0","1","G1","395.3270000000001","7.9274000000000004","86.94800000000001","19.0","0.0","0.0","7.0","1.0","100.0","2.0","0.0","0.0","2.0","0.0","144.61136091373268","2.761979214703","663.8579666719705"
"B-2794","2,2',3,3',4,4',5-heptachlorobiphenyl","InChI=1S/C12H3Cl7/c13-6-2-1-4(8(15)10(6)17)5-3-7(14)11(18)12(19)9(5)16/h1-3H","RMPWIIKNWPVWNG-UHFFFAOYSA-N","Clc1ccc(c(Cl)c1Cl)c2cc(Cl)c(Cl)c(Cl)c2Cl","-8.0566","0.0","1","G1","395.3270000000001","7.9274000000000004","86.94800000000001","19.0","0.0","0.0","7.0","1.0","100.0","2.0","0.0","0.0","2.0","0.0","144.61136091373268","2.768496895571185","663.8579666719705"
"B-2795","dl-alanine, n-(2-chlorophenyl)-","InChI=1S/C9H10ClNO2/c1-6(9(12)13)11-8-5-3-2-4-7(8)10/h2-6,11H,1H3,(H,12,13)","AWRNWLYWQPIEDM-UHFFFAOYSA-N","CC(Nc1ccccc1Cl)C(O)=O","-2.3271","0.0","1","G1","199.63699999999994","2.2249999999999996","52.172500000000014","13.0","2.0","2.0","4.0","3.0","70.0","1.0","0.0","0.0","1.0","49.33","81.33511372541629","2.742841851112674","314.23794078246516"
"B-2796","tebutam","InChI=1S/C15H23NO/c1-12(2)16(14(17)15(3,4)5)11-13-9-7-6-8-10-13/h6-10,12H,11H2,1-5H3","RJKCKKDSSSRYCB-UHFFFAOYSA-N","CC(C)N(Cc1ccccc1)C(=O)C(C)(C)C","-2.4704","0.0","1","G1","233.35499999999996","3.4697000000000022","71.58300000000006","17.0","1.0","0.0","2.0","3.0","94.0","1.0","0.0","0.0","1.0","20.310000000000002","104.63723791931358","2.8515011521990226","362.2582515335872"
"B-2797","butanoic acid, 4-(benzoylamino)-","InChI=1S/C11H13NO3/c13-10(14)7-4-8-12-11(15)9-5-2-1-3-6-9/h1-3,5-6H,4,7-8H2,(H,12,15)(H,13,14)","BOZHPKGNNJPZKV-UHFFFAOYSA-N","OC(=O)CCCNC(=O)c1ccccc1","-1.2025","0.0","1","G1","207.22900000000004","1.2812000000000001","55.645000000000024","15.0","2.0","2.0","4.0","5.0","80.0","1.0","0.0","0.0","1.0","66.4","87.92325382737161","2.2822700986859936","334.9460875329806"
"B-2800","sulprofos","InChI=1S/C12H19O2PS3/c1-4-10-18-15(16,13-5-2)14-11-6-8-12(17-3)9-7-11/h6-9H,4-5,10H2,1-3H3","JXHJNEJVUNHLKO-UHFFFAOYSA-N","CCCS[P](=S)(OCC)Oc1ccc(SC)cc1","-6.0171","0.0","1","G1","322.457","5.191500000000004","87.51100000000005","18.0","5.0","0.0","6.0","8.0","102.0","1.0","0.0","0.0","1.0","18.46","123.13620878382513","2.718332393655078","394.81392577347697"
"B-2801","benzoic acid, 5-chloro-2-hydroxy-4-methyl-","InChI=1S/C8H7ClO3/c1-4-2-7(10)5(8(11)12)3-6(4)9/h2-3,10H,1H3,(H,11,12)","PNBKMRRXXVGPTJ-UHFFFAOYSA-N","Cc1cc(O)c(cc1Cl)C(O)=O","-3.1248","0.0","1","G1","186.594","2.05222","44.81310000000001","12.0","2.0","2.0","4.0","1.0","64.0","1.0","0.0","0.0","1.0","57.53","74.21454317960765","3.3258841466405986","333.3200121526738"
"B-2802","imazalil base","InChI=1S/C14H14Cl2N2O/c1-2-7-19-14(9-18-6-5-17-10-18)12-4-3-11(15)8-13(12)16/h2-6,8,10,14H,1,7,9H2","PZBPKYOVPCNPJY-UHFFFAOYSA-N","Clc1ccc(C(Cn2ccnc2)OCC=C)c(Cl)c1","-3.2178","0.0","1","G1","297.185","4.133800000000003","77.57900000000004","19.0","3.0","0.0","5.0","6.0","100.0","2.0","0.0","0.0","2.0","27.05","121.98246243718613","2.2248663767645818","540.3839221249747"