"ID","Name","InChI","InChIKey","SMILES","Solubility","SD","Ocurrences","Group","MolWt","MolLogP","MolMR","HeavyAtomCount","NumHAcceptors","NumHDonors","NumHeteroatoms","NumRotatableBonds","NumValenceElectrons","NumAromaticRings","NumSaturatedRings","NumAliphaticRings","RingCount","TPSA","LabuteASA","BalabanJ","BertzCT"
"B-2908","ipt (isoprothiolane)","InChI=1S/C12H18O4S2/c1-7(2)15-10(13)9(11(14)16-8(3)4)12-17-5-6-18-12/h7-8H,5-6H2,1-4H3","UFHLMYOGRXOCSL-UHFFFAOYSA-N","CC(C)OC(=O)C(C(=O)OC(C)C)=C1SCCS1","-3.7306","0.024699999999999944","2","G3","290.406","2.581200000000001","74.39800000000004","18.0","6.0","0.0","6.0","4.0","102.0","0.0","1.0","1.0","1.0","52.60000000000001","115.8545348103105","2.9181647405481215","329.0889112034554"
"B-2910","acifluorfen","InChI=1S/C14H7ClF3NO5/c15-10-5-7(14(16,17)18)1-4-12(10)24-8-2-3-11(19(22)23)9(6-8)13(20)21/h1-6H,(H,20,21)","NUFNQYOELLVIPL-UHFFFAOYSA-N","OC(=O)c1cc(Oc2ccc(cc2Cl)C(F)(F)F)ccc1[N+]([O-])=O","-3.4791","0.0","1","G1","361.65900000000005","4.757500000000002","76.58370000000002","24.0","4.0","1.0","10.0","4.0","126.0","2.0","0.0","0.0","2.0","89.66999999999999","136.74053079426105","2.3661915932521005","822.5425921879977"
"B-2911","terfenadine","InChI=1S/C32H41NO2/c1-31(2,3)26-18-16-25(17-19-26)30(34)15-10-22-33-23-20-29(21-24-33)32(35,27-11-6-4-7-12-27)28-13-8-5-9-14-28/h4-9,11-14,16-19,29-30,34-35H,10,15,20-24H2,1-3H3","GUGOEEXESWIERI-UHFFFAOYSA-N","CC(C)(C)c1ccc(cc1)C(O)CCCN2CCC(CC2)C(O)(c3ccccc3)c4ccccc4","-6.69","0.0","1","G1","471.6850000000001","6.445800000000007","144.38259999999983","35.0","3.0","2.0","3.0","8.0","186.0","3.0","1.0","1.0","4.0","43.7","210.99725115424363","1.317281345957648","992.931144115396"
"B-2912","azacyclohexadecan-2-one","InChI=1S/C15H29NO/c17-15-13-11-9-7-5-3-1-2-4-6-8-10-12-14-16-15/h1-14H2,(H,16,17)","NIMGTMNBWOVIHM-UHFFFAOYSA-N","O=C1CCCCCCCCCCCCCCN1","-2.8739999999999997","0.0","1","G1","239.40299999999993","4.187500000000003","73.03070000000005","17.0","1.0","1.0","2.0","0.0","100.0","0.0","1.0","1.0","1.0","29.1","106.55399375950468","2.1124110421554065","173.36084112383594"
"B-2913","Vx agent","InChI=1S/C11H26NO2PS/c1-7-14-15(6,13)16-9-8-12(10(2)3)11(4)5/h10-11H,7-9H2,1-6H3","JJIUCEJQJXNMHV-UHFFFAOYSA-N","CCO[P](C)(=O)SCCN(C(C)C)C(C)C","-0.95","0.0","1","G1","267.375","3.6978000000000026","74.59250000000006","16.0","4.0","0.0","5.0","8.0","98.0","0.0","0.0","0.0","0.0","29.54","104.51001587821024","3.9962850494122186","226.02445222960526"
"B-2914","hexanamide, n,n'-1,2-ethanediylbis-","InChI=1S/C14H28N2O2/c1-3-5-7-9-13(17)15-11-12-16-14(18)10-8-6-4-2/h3-12H2,1-2H3,(H,15,17)(H,16,18)","JUFADMDNFLYBPC-UHFFFAOYSA-N","CCCCCC(=O)NCCNC(=O)CCCCC","-3.1079","0.0","1","G1","256.38999999999993","2.3794000000000004","74.30340000000005","18.0","2.0","2.0","4.0","11.0","106.0","0.0","0.0","0.0","0.0","58.2","110.90626708228908","3.3233194240262938","205.83388115177073"
"B-2915","benzeneacetic acid, .alpha.-(acetyloxy)-, (r)-","InChI=1S/C10H10O4/c1-7(11)14-9(10(12)13)8-5-3-2-4-6-8/h2-6,9H,1H3,(H,12,13)/t9-/m1/s1","OBCUSTCTKLTMBX-SECBINFHSA-N","CC(=O)O[C@@H](C(O)=O)c1ccccc1","-1.2313","0.0","1","G1","194.186","1.3754000000000002","48.58480000000002","14.0","3.0","1.0","4.0","3.0","74.0","1.0","0.0","0.0","1.0","63.6","81.12199475887383","2.8895915446477933","331.23505186595935"
"B-2916","galatitol, 2,3:4,5-dianhydro-1,6-dideoxy-","InChI=1S/C6H10O2/c1-3-5(7-3)6-4(2)8-6/h3-6H,1-2H3","SINVKWSLMGHBSX-UHFFFAOYSA-N","CC1OC1C2OC2C","-0.0575","0.0","1","G1","114.14399999999998","0.5609999999999998","28.669999999999987","8.0","2.0","0.0","2.0","1.0","46.0","0.0","2.0","2.0","2.0","25.06","48.77938975176789","1.8555863339043257","99.09616281328596"
"B-2917","1h-indole-2,3-dicarboxamide, 1-methyl-","InChI=1S/C11H11N3O2/c1-14-7-5-3-2-4-6(7)8(10(12)15)9(14)11(13)16/h2-5H,1H3,(H2,12,15)(H2,13,16)","VUUWSWSYQZKQQJ-UHFFFAOYSA-N","Cn1c2ccccc2c(C(N)=O)c1C(N)=O","-1.8184","0.0","1","G1","217.22799999999995","0.3761000000000001","59.954800000000006","16.0","3.0","2.0","5.0","2.0","82.0","2.0","0.0","0.0","2.0","91.10999999999999","91.6298514961446","2.974503423416389","598.5406367500988"
"B-2918","1,3-benzenedicarboxylic acid, 4-sulfo-","InChI=1S/C8H6O7S/c9-7(10)4-1-2-6(16(13,14)15)5(3-4)8(11)12/h1-3H,(H,9,10)(H,11,12)(H,13,14,15)","JSYUFUJLFRBMEN-UHFFFAOYSA-N","OC(=O)c1ccc(c(c1)C(O)=O)[S](O)(=O)=O","0.6087","0.0","1","G1","246.19599999999997","0.3297","50.175200000000004","16.0","4.0","3.0","8.0","3.0","86.0","1.0","0.0","0.0","1.0","128.97","89.70143506281035","3.551357292442046","557.7495999941927"
"B-2919","1h-pyrazol-5-amine, 3,4-dimethyl-1-phenyl-","InChI=1S/C11H13N3/c1-8-9(2)13-14(11(8)12)10-6-4-3-5-7-10/h3-7H,12H2,1-2H3","PUAVVYSZRNWCGP-UHFFFAOYSA-N","Cc1nn(c2ccccc2)c(N)c1C","-1.6704","0.0","1","G1","187.24599999999995","2.07134","57.45040000000002","14.0","3.0","1.0","3.0","1.0","72.0","2.0","0.0","0.0","2.0","43.84","83.16550570832777","2.581484406768721","443.05624557136855"
"B-2920","metolachlor","InChI=1S/C15H22ClNO2/c1-5-13-8-6-7-11(2)15(13)17(14(18)9-16)12(3)10-19-4/h6-8,12H,5,9-10H2,1-4H3","WVQBLGZPHOPPFO-UHFFFAOYSA-N","CCc1cccc(C)c1N(C(C)COC)C(=O)CCl","-2.7287","0.0","1","G1","283.7989999999999","3.1641200000000014","80.10100000000004","19.0","2.0","0.0","4.0","6.0","106.0","1.0","0.0","0.0","1.0","29.54","120.05404937570214","3.2776937707403","434.153792738549"
"B-2921","hexazinone","InChI=1S/C12H20N4O2/c1-14(2)10-13-11(17)16(12(18)15(10)3)9-7-5-4-6-8-9/h9H,4-8H2,1-3H3","CAWXEEYDBZRFPE-UHFFFAOYSA-N","CN(C)C1=NC(=O)N(C2CCCCC2)C(=O)N1C","-0.8834","0.5017","2","G2","252.31799999999993","0.5131999999999994","70.18700000000003","18.0","6.0","0.0","6.0","2.0","100.0","1.0","1.0","1.0","2.0","60.13","105.8718157818583","2.5209699133525185","537.9888841001627"
"B-2922","buminafos","InChI=1S/C18H38NO3P/c1-4-7-15-19-18(13-11-10-12-14-18)23(20,21-16-8-5-2)22-17-9-6-3/h19H,4-17H2,1-3H3","NMBXMBCZBXUXAM-UHFFFAOYSA-N","CCCCNC1(CCCCC1)[P](=O)(OCCCC)OCCCC","-3.3105","0.0","1","G1","347.48000000000013","5.863000000000006","98.05320000000007","23.0","4.0","1.0","5.0","13.0","138.0","0.0","1.0","1.0","1.0","47.56","143.17732887801236","2.8611358260243813","329.1583993388441"
"B-2923","buthiobate","InChI=1S/C21H28N2S2/c1-5-6-14-24-20(23-19-8-7-13-22-15-19)25-16-17-9-11-18(12-10-17)21(2,3)4/h7-13,15H,5-6,14,16H2,1-4H3","ZZVVDIVWGXTDRQ-UHFFFAOYSA-N","CCCCSC(SCc1ccc(cc1)C(C)(C)C)=Nc2cccnc2","-5.5712","0.0","1","G1","372.60300000000007","6.833300000000007","115.13500000000005","25.0","4.0","0.0","4.0","6.0","134.0","2.0","0.0","0.0","2.0","25.25","160.49910898706418","2.022160989259208","658.5454467732352"
"B-2925","3-(5-Tert-butyl-1,3,4-thiadiazol-2-yl)-1-(2,2-dimethoxyethyl)-1-methylurea","InChI=1S/C12H22N4O3S/c1-12(2,3)9-14-15-10(20-9)13-11(17)16(4)7-8(18-5)19-6/h8H,7H2,1-6H3,(H,13,15,17)","JEBBYIJCXLFPCX-UHFFFAOYSA-N","COC(CN(C)C(=O)Nc1sc(nn1)C(C)(C)C)OC","-1.8678","0.0","1","G1","302.40000000000003","1.9182000000000001","78.06370000000004","20.0","6.0","1.0","8.0","5.0","114.0","1.0","0.0","0.0","1.0","76.58","122.8272454770412","2.594845644111791","440.1559888129215"
"B-2926","cimetidine","InChI=1S/C10H16N6S/c1-8-9(16-7-15-8)5-17-4-3-13-10(12-2)14-6-11/h7H,3-5H2,1-2H3,(H,15,16)(H2,12,13,14)","AQIXAKUUQRKLND-UHFFFAOYSA-N","CN=C(NCCSCc1nc[nH]c1C)NC#N","-1.4298","0.1593065284286868","4","G5","252.347","0.5974","69.59710000000001","17.0","4.0","3.0","7.0","5.0","92.0","1.0","0.0","0.0","1.0","88.88999999999999","104.92554288214419","2.1309410302229006","405.1737761568005"
"B-2927","cloethocarb","InChI=1S/C11H14ClNO4/c1-13-11(14)17-9-6-4-3-5-8(9)16-10(7-12)15-2/h3-6,10H,7H2,1-2H3,(H,13,14)","PITWUHDDNUVBPT-UHFFFAOYSA-N","CNC(=O)Oc1ccccc1OC(CCl)OC","-2.3005","0.0","1","G1","259.68899999999996","1.9949000000000001","63.67070000000004","17.0","4.0","1.0","6.0","5.0","94.0","1.0","0.0","0.0","1.0","56.790000000000006","104.6113998905341","2.796916886110327","368.24399292547963"
"B-2928","milbemectin a3","InChI=1S/C31H44O7/c1-18-7-6-8-23-17-35-28-27(32)21(4)14-26(31(23,28)34)29(33)36-25-15-24(10-9-19(2)13-18)38-30(16-25)12-11-20(3)22(5)37-30/h6-9,14,18,20,22,24-28,32,34H,10-13,15-17H2,1-5H3/b7-6+,19-9+,23-8+/t18-,20-,22?,24?,25-,26-,27+,28+,30-,31+/m0/s1","ZLBGSRMUSVULIE-SJRQICMCSA-N","C[C@@H]/1CC(=C/CC2C[C@@H](C[C@]3(CC[C@H](C)C(C)O3)O2)OC(=O)[C@@H]4C=C(C)[C@@H](O)[C@H]5OCC(=C\C=C1)/[C@@]45O)/C","-5.7787","0.0","1","G1","528.6860000000003","4.534200000000005","142.98459999999997","38.0","7.0","2.0","7.0","0.0","210.0","0.0","3.0","5.0","5.0","94.45000000000002","226.1041170858079","1.5122842815007262","1042.828204191825"
"B-2929","milbemectin a4","InChI=1S/C32H46O7/c1-6-27-21(4)12-13-31(39-27)17-25-16-24(38-31)11-10-20(3)14-19(2)8-7-9-23-18-36-29-28(33)22(5)15-26(30(34)37-25)32(23,29)35/h7-10,15,19,21,24-29,33,35H,6,11-14,16-18H2,1-5H3/b8-7+,20-10+,23-9+/t19?,21?,24-,25+,26+,27?,28-,29-,31-,32-/m1/s1","VOZIAWLUULBIPN-DFYAAVTESA-N","CCC1O[C@]2(CCC1C)C[C@@H]3C[C@@H](C\C=C(/C)CC(C)/C=C/C=C/4CO[C@@H]5[C@H](O)C(=C[C@@H](C(=O)O3)[C@]45O)C)O2","-4.8772","0.0","1","G1","542.7130000000002","4.924300000000007","147.60159999999988","39.0","7.0","2.0","7.0","1.0","216.0","0.0","3.0","5.0","5.0","94.45","232.46905920020453","1.5098712260051286","1058.7357476848138"
"B-2931","2,4-dichlorodiphenyl ether","InChI=1S/C12H8Cl2O/c13-9-6-7-12(11(14)8-9)15-10-4-2-1-3-5-10/h1-8H","KXIPYLZZJZMMPD-UHFFFAOYSA-N","Clc1ccc(Oc2ccccc2)c(Cl)c1","-4.6304","0.0","1","G1","239.101","4.785700000000003","62.97800000000003","15.0","1.0","0.0","3.0","2.0","76.0","2.0","0.0","0.0","2.0","9.23","98.2085750088312","2.2513977394811406","454.4342279806418"
"B-2932","2,2',3,4',5,5'-hexachlorobiphenyl","InChI=1S/C12H4Cl6/c13-5-1-7(12(18)11(17)2-5)6-3-9(15)10(16)4-8(6)14/h1-4H","BQHCQAQLTCQFJZ-UHFFFAOYSA-N","Clc1cc(Cl)c(Cl)c(c1)c2cc(Cl)c(Cl)cc2Cl","-8.5801","0.009949999999999903","2","G3","360.88200000000006","7.274000000000001","81.938","18.0","0.0","0.0","6.0","1.0","94.0","2.0","0.0","0.0","2.0","0.0","134.30809468685104","2.7288630157192038","620.4500798683472"
"B-2933","pipemidic acid","InChI=1S/C14H17N5O3/c1-2-18-8-10(13(21)22)11(20)9-7-16-14(17-12(9)18)19-5-3-15-4-6-19/h7-8,15H,2-6H2,1H3,(H,21,22)","JOHZPMXAZQZXHR-UHFFFAOYSA-N","CCN1C=C(C(O)=O)C(=O)c2cnc(nc12)N3CCNCC3","-2.9739999999999998","0.0","1","G1","303.32200000000006","-0.0807999999999991","81.51400000000002","22.0","7.0","2.0","8.0","3.0","116.0","2.0","1.0","1.0","3.0","100.35","125.95772053400901","2.168642932607111","779.8773504105488"
"B-2934","4(3h)-pyrimidone","InChI=1S/C4H4N2O/c7-4-1-2-5-3-6-4/h2-3H,1H2","TZYQTWHRLVDYPL-UHFFFAOYSA-N","O=C1CC=NC=N1","0.586","0.0","1","G1","96.089","0.015800000000000036","26.607999999999993","7.0","2.0","0.0","3.0","0.0","36.0","0.0","0.0","1.0","1.0","41.79","40.78041328925415","2.659825742611341","136.6252210569148"
"B-2935","1-(3-Chlorophthalimido)cyclohexanecarboxamide","InChI=1S/C15H15ClN2O3/c16-10-6-4-5-9-11(10)13(20)18(12(9)19)15(14(17)21)7-2-1-3-8-15/h4-6H,1-3,7-8H2,(H2,17,21)","PSAVXKLISNEJJE-UHFFFAOYSA-N","NC(=O)C1(CCCCC1)N2C(=O)c3cccc(Cl)c3C2=O","-4.0097","0.0","1","G1","306.7490000000001","2.1242","76.96240000000002","21.0","3.0","1.0","6.0","2.0","110.0","1.0","1.0","2.0","3.0","80.47","126.59177673623707","2.119213499334527","650.3188570969975"
"B-2936","cyclohexylmercapto-acetic acid","InChI=1S/C8H14O2S/c9-8(10)6-11-7-4-2-1-3-5-7/h7H,1-6H2,(H,9,10)","FBBVJXMXGVHARA-UHFFFAOYSA-N","OC(=O)CSC1CCCCC1","-1.3381","0.0","1","G1","174.26499999999996","2.1369","46.96680000000003","11.0","2.0","1.0","3.0","3.0","64.0","0.0","1.0","1.0","1.0","37.3","71.36688055268161","2.092513389046783","130.05374780501026"
"B-2937","5-ethyl-5-methyl-2,4-oxazolidinedione","InChI=1S/C6H9NO3/c1-3-6(2)4(8)7-5(9)10-6/h3H2,1-2H3,(H,7,8,9)","MGHNWMRNFGYJKE-UHFFFAOYSA-N","CCC1(C)OC(=O)NC1=O","0.0203","0.0","1","G1","143.14199999999997","0.42150000000000004","33.31969999999998","10.0","3.0","1.0","4.0","1.0","56.0","0.0","1.0","1.0","1.0","55.4","58.54458205948581","2.8000015092487516","189.43195019909115"