"ID","Name","InChI","InChIKey","SMILES","Solubility","SD","Ocurrences","Group","MolWt","MolLogP","MolMR","HeavyAtomCount","NumHAcceptors","NumHDonors","NumHeteroatoms","NumRotatableBonds","NumValenceElectrons","NumAromaticRings","NumSaturatedRings","NumAliphaticRings","RingCount","TPSA","LabuteASA","BalabanJ","BertzCT"
"B-1175","d-tyrosine","InChI=1S/C9H11NO3/c10-8(9(12)13)5-6-1-3-7(11)4-2-6/h1-4,8,11H,5,10H2,(H,12,13)/t8-/m1/s1","OUYCCCASQSFEME-MRVPVSSYSA-N","N[C@H](Cc1ccc(O)cc1)C(O)=O","-2.6049","0.0","1","G1","181.19099999999997","0.3466","47.42200000000002","13.0","3.0","3.0","4.0","3.0","70.0","1.0","0.0","0.0","1.0","83.55000000000001","75.6161097641353","2.641763904889644","294.23305328030176"
"B-1176","dl-tyrosine","InChI=1S/C9H11NO3/c10-8(9(12)13)5-6-1-3-7(11)4-2-6/h1-4,8,11H,5,10H2,(H,12,13)","OUYCCCASQSFEME-UHFFFAOYSA-N","NC(Cc1ccc(O)cc1)C(O)=O","-2.6561","0.20722737964612692","4","G5","181.19099999999997","0.3466","47.42200000000002","13.0","3.0","3.0","4.0","3.0","70.0","1.0","0.0","0.0","1.0","83.55000000000001","75.6161097641353","2.641763904889644","294.23305328030176"
"B-1178","zinc valerate","InChI=1S/2C5H10O2.Zn/c2*1-2-3-4-5(6)7;/h2*2-4H2,1H3,(H,6,7);/q;;+2/p-2","BUDAIZWUWHWZPQ-UHFFFAOYSA-L","[Zn++].CCCCC([O-])=O.CCCCC([O-])=O","-1.2722","0.0","1","G1","267.63999999999993","-0.14949999999999974","49.06400000000003","15.0","4.0","0.0","5.0","6.0","84.0","0.0","0.0","0.0","0.0","80.25999999999999","103.82440095797268","-1.7999999704687503e-07","141.5013780371774"
"B-1179","oxiranemethanol","InChI=1S/C3H6O2/c4-1-3-2-5-3/h3-4H,1-2H2","CTKINSOISVBQLD-UHFFFAOYSA-N","OCC1CO1","1.1303","0.0","1","G1","74.07900000000001","-0.6225","16.8258","5.0","2.0","1.0","2.0","1.0","30.0","0.0","1.0","1.0","1.0","32.76","30.371083084796428","1.9989394851788977","31.87430298092722"
"B-1183","2-pyrimidone","InChI=1S/C4H4N2O/c7-4-5-2-1-3-6-4/h1-3H,(H,5,6,7)","VTGOHKSTWXHQJK-UHFFFAOYSA-N","O=C1NC=CC=N1","0.6749","0.0","1","G1","96.089","-0.23009999999999997","24.857699999999994","7.0","2.0","1.0","3.0","0.0","36.0","1.0","0.0","0.0","1.0","45.75","40.032221181433755","3.27532977603021","175.38621243302316"
"B-1184","methyl propyl ether","InChI=1S/C4H10O/c1-3-4-5-2/h3-4H2,1-2H3","VNKYTQGIUYNRMY-UHFFFAOYSA-N","CCCOC","-0.3857","0.30215000000000003","2","G3","74.12299999999999","1.0428","22.166999999999994","5.0","1.0","0.0","1.0","2.0","32.0","0.0","0.0","0.0","0.0","9.23","32.94762260052625","2.19060968716425","11.119415478763749"
"B-1185","1-monobutyrin","InChI=1S/C7H14O4/c1-2-3-7(10)11-5-6(9)4-8/h6,8-9H,2-5H2,1H3","RIEABXYBQSLTFR-UHFFFAOYSA-N","CCCC(=O)OCC(O)CO","-1.335","0.0","1","G1","162.18499999999997","-0.3170999999999998","38.9596","11.0","4.0","2.0","4.0","5.0","66.0","0.0","0.0","0.0","0.0","66.76","65.79243854815186","3.298262292410384","113.00820116821995"
"B-1186","zinc acetate","InChI=1S/2C2H4O2.Zn/c2*1-2(3)4;/h2*1H3,(H,3,4);/q;;+2/p-2","DJWUNCQRNNEAKC-UHFFFAOYSA-L","[Zn++].CC([O-])=O.CC([O-])=O","0.2179","0.0","1","G1","183.47799999999998","-2.490099999999999","21.36199999999999","9.0","4.0","0.0","5.0","0.0","48.0","0.0","0.0","0.0","0.0","80.25999999999999","65.63474827159301","-7.199999951999999e-08","70.56842503028855"
"B-1187","allyl ether","InChI=1S/C6H10O/c1-3-5-7-6-4-2/h3-4H,1-2,5-6H2","ATVJXMYDOSMEPO-UHFFFAOYSA-N","C=CCOCC=C","-0.0206","0.0","1","G1","98.145","1.375","31.212999999999987","7.0","1.0","0.0","1.0","4.0","40.0","0.0","0.0","0.0","0.0","9.23","44.29830076495096","2.679549206552144","49.20035947603791"
"B-1188","zinc formate","InChI=1S/2CH2O2.Zn/c2*2-1-3;/h2*1H,(H,2,3);/q;;+2/p-2","XOBMCBQSUCOAOC-UHFFFAOYSA-L","[Zn++].[O-]C=O.[O-]C=O","-0.4755","0.0","1","G1","155.42399999999998","-3.2702999999999998","12.128","7.0","4.0","0.0","5.0","0.0","36.0","0.0","0.0","0.0","0.0","80.25999999999999","52.90486404279978","-3.999999981250001e-08","30.671034463057104"
"B-1189","carbon tetrabromide","InChI=1S/CBr4/c2-1(3,4)5","HJUGFYREWKUQJT-UHFFFAOYSA-N","BrC(Br)(Br)Br","-3.1404","0.0","1","G1","331.62699999999995","3.1773000000000002","38.439","5.0","0.0","0.0","4.0","0.0","32.0","0.0","0.0","0.0","0.0","0.0","64.20944145039498","3.0237157840738176","19.11941547876375"
"B-1190","fluoromethyl sulfone","InChI=1S/CH3FO2S/c1-5(2,3)4/h1H3","KNWQLFOXPQZGPX-UHFFFAOYSA-N","C[S](F)(=O)=O","-0.5145","0.0","1","G1","98.098","-0.08449999999999991","15.951800000000002","5.0","2.0","0.0","4.0","0.0","32.0","0.0","0.0","0.0","0.0","34.14","29.825681855149753","4.062942298971397","92.81635834269238"
"B-1192","2-propanol, 1-chloro-2-methyl-","InChI=1S/C4H9ClO/c1-4(2,6)3-5/h6H,3H2,1-2H3","JNOZGFXJZQXOSU-UHFFFAOYSA-N","CC(C)(O)CCl","0.1602","0.0","1","G1","108.56800000000001","0.9961","27.01779999999999","6.0","1.0","1.0","2.0","1.0","38.0","0.0","0.0","0.0","0.0","20.23","42.93157735009705","3.1684898726705697","37.30296890880646"
"B-1193","methane, bromotrinitro-","InChI=1S/CBrN3O6/c2-1(3(6)7,4(8)9)5(10)11","KWSSHZBBUQSMKF-UHFFFAOYSA-N","[O-][N+](=O)C(Br)([N+]([O-])=O)[N+]([O-])=O","-1.7705","0.0","1","G1","229.93","-0.17730000000000007","32.641200000000005","11.0","6.0","0.0","10.0","3.0","62.0","0.0","0.0","0.0","0.0","129.42000000000002","66.5657258009703","4.985152095352672","187.82818531582762"
"B-1194","heroin","InChI=1S/C21H23NO5/c1-11(23)25-16-6-4-13-10-15-14-5-7-17(26-12(2)24)20-21(14,8-9-22(15)3)18(13)19(16)27-20/h4-7,14-15,17,20H,8-10H2,1-3H3/t14-,15+,17-,20-,21-/m0/s1","GVGLGOZIDCSQPN-PVHGPHFFSA-N","CN1CC[C@]23[C@H]4Oc5c(OC(C)=O)ccc(C[C@@H]1[C@@H]2C=C[C@@H]4OC(C)=O)c35","-2.7894","0.0","1","G1","369.4170000000001","1.9886","96.76800000000006","27.0","6.0","0.0","6.0","2.0","142.0","1.0","1.0","4.0","5.0","65.07","157.6161207479565","1.713086629534262","877.5680970288363"
"B-1195","3,3-dimethylpentane","InChI=1S/C7H16/c1-5-7(3,4)6-2/h5-6H2,1-4H3","AEXMKKGTQYQZCS-UHFFFAOYSA-N","CCC(C)(C)CC","-4.2286","0.0","1","G1","100.20499999999998","2.832600000000001","34.362999999999985","7.0","0.0","0.0","0.0","2.0","44.0","0.0","0.0","0.0","0.0","0.0","46.92890371420919","3.3604351426960575","38.0"
"B-1196","ethion","InChI=1S/C9H22O4P2S4/c1-5-10-14(16,11-6-2)18-9-19-15(17,12-7-3)13-8-4/h5-9H2,1-4H3","RIZMRRKBZQXFOY-UHFFFAOYSA-N","CCO[P](=S)(OCC)SCS[P](=S)(OCC)OCC","-5.2838","0.12809999999999988","2","G3","384.4870000000002","5.005300000000004","95.12300000000005","19.0","8.0","0.0","10.0","12.0","116.0","0.0","0.0","0.0","0.0","36.92","134.44287384816894","4.359571541268355","279.3414689864336"
"B-1197","3-methyl-1-butene","InChI=1S/C5H10/c1-4-5(2)3/h4-5H,1H2,2-3H3","YHQXBTXEYZIYOV-UHFFFAOYSA-N","CC(C)C=C","-2.7319999999999998","0.0","1","G1","70.135","1.8284","25.03499999999999","5.0","0.0","0.0","0.0","1.0","30.0","0.0","0.0","0.0","0.0","0.0","33.50941645323172","2.825749368745867","27.019550008653876"
"B-1198","2-methyl-1-butene","InChI=1S/C5H10/c1-4-5(2)3/h2,4H2,1,3H3","MHNNAWXXUZQSNM-UHFFFAOYSA-N","CCC(C)=C","-2.7307","0.0","1","G1","70.13499999999999","1.9725","25.10499999999999","5.0","0.0","0.0","0.0","1.0","30.0","0.0","0.0","0.0","0.0","0.0","33.50941645323173","2.847378923087672","35.302968908806456"
"B-1199","3-chloro-2-methylpropene","InChI=1S/C4H7Cl/c1-4(2)3-5/h1,3H2,2H3","OHXAOPZTJOUYKM-UHFFFAOYSA-N","CC(=C)CCl","-1.8108","0.0","1","G1","90.553","1.8013","25.53399999999999","5.0","0.0","0.0","1.0","1.0","30.0","0.0","0.0","0.0","0.0","0.0","37.44774056571679","2.8473789230876716","38.912609383243264"
"B-1200","1,2-dichloropropene","InChI=1S/C3H4Cl2/c1-3(5)2-4/h2H,1H3/b3-2-","PPKPKFIWDXDAGC-IHWYPQMZSA-N","C\C(Cl)=C\Cl","-1.6138","0.0","1","G1","110.971","2.3253000000000004","25.462999999999994","5.0","0.0","0.0","2.0","0.0","30.0","0.0","0.0","0.0","0.0","0.0","41.386064678201855","3.1431973062780685","42.854752972273346"
"B-1201","2-butanol, 3-chloro-","InChI=1S/C4H9ClO/c1-3(5)4(2)6/h3-4,6H,1-2H3","XKEHIUIIEXXHJX-UHFFFAOYSA-N","CC(O)C(C)Cl","-0.2122","0.0","1","G1","108.56800000000001","0.9944999999999999","26.99579999999999","6.0","1.0","1.0","2.0","1.0","38.0","0.0","0.0","0.0","0.0","20.23","42.93157735009706","2.9934972434784735","28.52932501298081"
"B-1202","1,2:3,4-diepoxybutane","InChI=1S/C4H6O2/c1-3(5-1)4-2-6-4/h3-4H,1-2H2/t3-,4+","ZFIVKAOQEXOYFY-ZXZARUISSA-N","C1O[C@@H]1[C@H]2CO2","1.065","0.0","1","G1","86.09","-0.21599999999999997","19.479999999999997","6.0","2.0","0.0","2.0","1.0","34.0","0.0","2.0","2.0","2.0","25.06","36.04950552297468","1.9155467020454342","53.94833690207419"
"B-1203","2,2,3-trimethylpentane","InChI=1S/C8H18/c1-6-7(2)8(3,4)5/h7H,6H2,1-5H3","XTDQDBVBDLYELW-UHFFFAOYSA-N","CCC(C)C(C)(C)C","-4.6776","0.0","1","G1","114.23199999999999","3.0786000000000016","38.91","8.0","0.0","0.0","0.0","1.0","50.0","0.0","0.0","0.0","0.0","0.0","53.29384582860579","3.623281003705976","56.92878689342031"
"B-1205","2,3-dimethylpentane","InChI=1S/C7H16/c1-5-7(4)6(2)3/h6-7H,5H2,1-4H3","WGECXQBGLLYSFP-UHFFFAOYSA-N","CCC(C)C(C)C","-4.2808","0.0","1","G1","100.20499999999998","2.6885000000000012","34.292999999999985","7.0","0.0","0.0","0.0","2.0","44.0","0.0","0.0","0.0","0.0","0.0","46.92890371420919","3.1442082073698243","37.30296890880646"
"B-1206","3-methyl-2-pentanol","InChI=1S/C6H14O/c1-4-5(2)6(3)7/h5-7H,4H2,1-3H3","ZXNBBWHRUSXUFZ-UHFFFAOYSA-N","CCC(C)C(C)O","-0.7216","0.0","1","G1","102.17699999999998","1.4133","31.135799999999982","7.0","1.0","1.0","1.0","2.0","44.0","0.0","0.0","0.0","0.0","20.23","45.3581953520086","3.1442082073698243","41.444678358882754"
"B-1207","3-methylpentan-2-one","InChI=1S/C6H12O/c1-4-5(2)6(3)7/h5H,4H2,1-3H3","UIHCLUNTQKBZGK-UHFFFAOYSA-N","CCC(C)C(C)=O","-0.6805","0.005249999999999977","2","G3","100.16099999999999","1.6215","30.13599999999998","7.0","1.0","0.0","1.0","2.0","42.0","0.0","0.0","0.0","0.0","17.07","44.72548369985635","3.3434170589539596","66.58027134782354"
"B-1208","2-methyl-3-pentanol","InChI=1S/C6H14O/c1-4-6(7)5(2)3/h5-7H,4H2,1-3H3","ISTJMQSHILQAEC-UHFFFAOYSA-N","CCC(O)C(C)C","-0.7062","0.0","1","G1","102.17699999999999","1.4133","31.135799999999982","7.0","1.0","1.0","1.0","2.0","44.0","0.0","0.0","0.0","0.0","20.23","45.35819535200859","3.1442082073698243","41.444678358882754"
"B-1209","2-methyl-3-pentanone","InChI=1S/C6H12O/c1-4-6(7)5(2)3/h5H,4H2,1-3H3","HYTRYEXINDDXJK-UHFFFAOYSA-N","CCC(=O)C(C)C","-0.8106","0.0","1","G1","100.16099999999999","1.6215","30.13599999999998","7.0","1.0","0.0","1.0","2.0","42.0","0.0","0.0","0.0","0.0","17.07","44.72548369985634","3.3530759537985286","64.58027134782355"
"B-1210","propanoic acid, 3-amino-2-hydroxy-","InChI=1S/C3H7NO3/c4-1-2(5)3(6)7/h2,5H,1,4H2,(H,6,7)","BMYNFMYTOJXKLE-UHFFFAOYSA-N","NCC(O)C(O)=O","-0.8229","0.007000000000000006","2","G3","105.09299999999999","-1.6094000000000002","22.696999999999996","7.0","3.0","3.0","4.0","2.0","42.0","0.0","0.0","0.0","0.0","83.55000000000001","40.559015558071266","3.3434170589539596","72.58027134782354"
"B-1211","2-bromo-3-methyl-butanoic acid","InChI=1S/C5H9BrO2/c1-3(2)4(6)5(7)8/h3-4H,1-2H3,(H,7,8)","UEBARDWJXBGYEJ-UHFFFAOYSA-N","CC(C)C(Br)C(O)=O","-1.103","0.0","1","G1","181.029","1.4905000000000002","35.18879999999999","8.0","1.0","1.0","3.0","2.0","48.0","0.0","0.0","0.0","0.0","37.3","57.02232294329711","3.6376825478398387","90.42945954287093"
"B-1212","2,3,4-trimethylpentane","InChI=1S/C8H18/c1-6(2)8(5)7(3)4/h6-8H,1-5H3","RLPGDEORIPLBNF-UHFFFAOYSA-N","CC(C)C(C)C(C)C","-4.6961","0.05194999999999972","2","G3","114.23199999999999","2.9345000000000017","38.839999999999996","8.0","0.0","0.0","0.0","2.0","50.0","0.0","0.0","0.0","0.0","0.0","53.29384582860579","3.464226847231096","45.05865002596162"
"B-1213","2,4-dimethyl-3-pentanone","InChI=1S/C7H14O/c1-5(2)7(8)6(3)4/h5-6H,1-4H3","HXVNBWAKAOHACI-UHFFFAOYSA-N","CC(C)C(=O)C(C)C","-1.3018","0.0","1","G1","114.18799999999997","1.8675","34.682999999999986","8.0","1.0","0.0","1.0","2.0","48.0","0.0","0.0","0.0","0.0","17.07","51.09042581425295","3.65123357893369","72.38761556290451"
"B-1214","butanoic acid, 3-amino-2-hydroxy-","InChI=1S/C4H9NO3/c1-2(5)3(6)4(7)8/h2-3,6H,5H2,1H3,(H,7,8)","QTRAXZHIRXYYPP-UHFFFAOYSA-N","CC(N)C(O)C(O)=O","-0.3535","0.0","1","G1","119.11999999999998","-1.2208999999999997","27.291999999999994","8.0","3.0","3.0","4.0","2.0","48.0","0.0","0.0","0.0","0.0","83.55000000000001","46.92395767246787","3.6376825478398387","91.28421251514428"
"B-1215","alpha-peltatin","InChI=1S/C21H20O8/c1-25-13-4-9(5-14(26-2)19(13)23)16-11-6-15-20(29-8-28-15)18(22)12(11)3-10-7-27-21(24)17(10)16/h4-6,10,16-17,22-23H,3,7-8H2,1-2H3/t10-,16+,17-/m0/s1","JGGWNGRBXJWAOC-HKJPBSJPSA-N","COc1cc(cc(OC)c1O)[C@H]2[C@@H]3[C@H](COC3=O)Cc4c(O)c5OCOc5cc24","-4.1254","0.0","1","G1","400.3830000000002","2.3209","98.92660000000002","29.0","8.0","2.0","8.0","3.0","152.0","2.0","1.0","3.0","5.0","103.68000000000002","166.07319864651305","1.7512594142247215","989.2211783083526"
"B-1216","meconin","InChI=1S/C10H10O4/c1-12-7-4-3-6-5-14-10(11)8(6)9(7)13-2/h3-4H,5H2,1-2H3","ORFFGRQMMWVHIB-UHFFFAOYSA-N","COc1ccc2COC(=O)c2c1OC","-1.8903","0.005150000000000099","2","G3","194.18599999999998","1.3741999999999999","48.66550000000002","14.0","4.0","0.0","4.0","2.0","74.0","1.0","0.0","1.0","2.0","44.760000000000005","81.38749821211856","2.625252291498254","383.9535426242286"
"B-1217","1h-imidazole-4,5-dicarboxylic acid","InChI=1S/C5H4N2O4/c8-4(9)2-3(5(10)11)7-1-6-2/h1H,(H,6,7)(H,8,9)(H,10,11)","ZEVWQFWTGHFIDH-UHFFFAOYSA-N","OC(=O)c1[nH]cnc1C(O)=O","-2.4944","0.0","1","G1","156.097","-0.19390000000000002","32.506299999999996","11.0","3.0","3.0","6.0","2.0","58.0","1.0","0.0","0.0","1.0","103.28","60.50160745473054","3.1577040058576493","274.68599164240635"
"B-1218","inositol monophosphate","InChI=1S/C6H13O9P/c7-1-2(8)4(10)6(5(11)3(1)9)15-16(12,13)14/h1-11H,(H2,12,13,14)","INAPMGSXUVUWAF-UHFFFAOYSA-N","OC1C(O)C(O)C(O[P](O)(O)=O)C(O)C1O","0.1076","0.0","1","G1","260.135","-3.7176000000000005","46.951100000000025","16.0","7.0","7.0","10.0","2.0","96.0","0.0","1.0","1.0","1.0","167.91","89.78092261563741","2.867032609706742","273.72379770009144"
"B-1219","benzoic acid, 2-hydroxy-, methoxymethyl ester","InChI=1S/C9H10O4/c1-12-6-13-9(11)7-4-2-3-5-8(7)10/h2-5,10H,6H2,1H3","NTIBMIIYTKPBNR-UHFFFAOYSA-N","COCOC(=O)c1ccccc1O","-2.3","0.0","1","G1","182.17499999999998","1.1529","45.39830000000003","13.0","4.0","1.0","4.0","3.0","70.0","1.0","0.0","0.0","1.0","55.760000000000005","75.70907577394033","2.710721902361315","295.42110525079596"
"B-1221","3,4-piperidinedicarboxylic acid","InChI=1S/C7H11NO4/c9-6(10)4-1-2-8-3-5(4)7(11)12/h4-5,8H,1-3H2,(H,9,10)(H,11,12)","UBLWASUIZDSYFN-UHFFFAOYSA-N","OC(=O)C1CCNCC1C(O)=O","-0.5395","0.0","1","G1","173.168","-0.6187","39.738299999999995","12.0","3.0","3.0","5.0","2.0","68.0","0.0","1.0","1.0","1.0","86.63","69.38444644876756","2.665364343758954","181.58305677429175"
"B-1222","1-aminoacridine","InChI=1S/C13H10N2/c14-11-5-3-7-13-10(11)8-9-4-1-2-6-12(9)15-13/h1-8H,14H2","LOMMDWBTANPFEJ-UHFFFAOYSA-N","Nc1cccc2nc3ccccc3cc12","-4.2219999999999995","0.0","1","G1","194.23700000000002","2.970200000000001","63.661400000000015","15.0","2.0","1.0","2.0","0.0","72.0","3.0","0.0","0.0","3.0","38.91","87.35427086092659","2.5325611743067453","644.1543647116673"
"B-1223","meso-hydrobenzoin","InChI=1S/C14H14O2/c15-13(11-7-3-1-4-8-11)14(16)12-9-5-2-6-10-12/h1-10,13-16H","IHPDTPWNFBQHEB-UHFFFAOYSA-N","OC(C(O)c1ccccc1)c2ccccc2","-1.933","0.0","1","G1","214.264","2.4536","62.803600000000046","16.0","2.0","2.0","2.0","3.0","82.0","2.0","0.0","0.0","2.0","40.46","94.80684905874625","2.2014614601293316","381.5030339335183"
"B-1225","2,6-diethylaniline","InChI=1S/C10H15N/c1-3-8-6-5-7-9(4-2)10(8)11/h5-7H,3-4,11H2,1-2H3","FOYHNROGBXVLLX-UHFFFAOYSA-N","CCc1cccc(CC)c1N","-2.3478","0.0","1","G1","149.23699999999997","2.3936","49.61040000000003","11.0","1.0","1.0","1.0","2.0","60.0","1.0","0.0","0.0","1.0","26.02","68.2310622740961","3.0951982523070996","218.37813497601377"
"B-1226","2-bromonaphthalene","InChI=1S/C10H7Br/c11-10-6-5-8-3-1-2-4-9(8)7-10/h1-7H","APSMUYYLXZULMS-UHFFFAOYSA-N","Brc1ccc2ccccc2c1","-4.4001","0.0","1","G1","207.07","3.6023000000000014","51.64800000000002","11.0","0.0","0.0","1.0","0.0","54.0","2.0","0.0","0.0","2.0","0.0","73.98061525687353","2.8289012156206956","379.2844903986785"
"B-1227","3-quinolinol","InChI=1S/C9H7NO/c11-8-5-7-3-1-2-4-9(7)10-6-8/h1-6,11H","IQQDNMHUOLMLNJ-UHFFFAOYSA-N","Oc1cnc2ccccc2c1","-2.3925","0.0","1","G1","145.16099999999997","1.9403999999999997","43.40780000000002","11.0","2.0","1.0","2.0","0.0","54.0","2.0","0.0","0.0","2.0","33.120000000000005","64.1269493843747","2.8289012156206956","383.97444633457127"
"B-1228","7-quinolinol","InChI=1S/C9H7NO/c11-8-4-3-7-2-1-5-10-9(7)6-8/h1-6,11H","XCRPPAPDRUBKRJ-UHFFFAOYSA-N","[O-]c1ccc2ccc[nH+]c2c1","-2.5038","0.0","1","G1","145.161","0.7274999999999998","39.949700000000014","11.0","1.0","0.0","2.0","0.0","54.0","2.0","0.0","0.0","2.0","37.2","64.1269493843747","2.8289012156206956","383.97444633457127"
"B-1229","chlorazine","InChI=1S/C11H20ClN5/c1-5-16(6-2)10-13-9(12)14-11(15-10)17(7-3)8-4/h5-8H2,1-4H3","QHXDTLYEHWXDSO-UHFFFAOYSA-N","CCN(CC)c1nc(Cl)nc(n1)N(CC)CC","-4.4112","0.024399999999999977","2","G3","257.76899999999995","2.2173999999999996","71.95900000000005","17.0","5.0","0.0","6.0","6.0","96.0","1.0","0.0","0.0","1.0","45.150000000000006","107.83281754479778","3.0835350187100214","319.4650689235082"
"B-1230","anatabine","InChI=1S/C10H12N2/c1-2-7-12-10(5-1)9-4-3-6-11-8-9/h1-4,6,8,10,12H,5,7H2/t10-/m0/s1","SOPPBXUYQGUQHE-JTQLQIEISA-N","C1N[C@@H](CC=C1)c2cccnc2","0.7953","0.0","1","G1","160.22","1.6722","48.737700000000025","12.0","2.0","1.0","2.0","1.0","62.0","1.0","0.0","1.0","2.0","24.92","72.33018967032106","2.1465524794439075","266.4268853283456"
"B-1231","2,3'-bipyridine","InChI=1S/C10H8N2/c1-2-7-12-10(5-1)9-4-3-6-11-8-9/h1-8H","VEKIYFGCEAJDDT-UHFFFAOYSA-N","c1ccc(nc1)c2cccnc2","-0.5916","0.0","1","G1","156.188","2.1435999999999993","47.46800000000002","12.0","2.0","0.0","2.0","1.0","58.0","2.0","0.0","0.0","2.0","25.78","70.92779328745401","2.457149480139045","305.23158955045676"
"B-1232","8h-purine-8-thione, 1,7-dihydro-","InChI=1S/C5H4N4S/c10-5-8-3-1-6-2-7-4(3)9-5/h1-2H,(H2,6,7,8,9,10)","VABISHCLVYMGAU-UHFFFAOYSA-N","S=C1Nc2cncnc2N1","-2.5243","0.0","1","G1","152.18200000000002","1.01549","39.07339999999999","10.0","3.0","2.0","5.0","0.0","50.0","2.0","0.0","0.0","2.0","57.36","61.3399522622909","3.007619546803024","364.9401973912069"
"B-1233","potassium oxalate","InChI=1S/C2H2O4.2K/c3-1(4)2(5)6;;/h(H,3,4)(H,5,6);;/q;2*+1/p-2","IRXRGVFLQOSHOH-UHFFFAOYSA-L","[K+].[K+].[O-]C(=O)C([O-])=O","0.1773","0.09765923295000001","2","G3","166.21399999999997","-9.505799999999999","10.014","8.0","4.0","0.0","6.0","0.0","34.0","0.0","0.0","0.0","0.0","80.25999999999999","130.8608342374309","-1.249999955000002e-07","78.03910001730776"
"B-1236","allethrin","InChI=1S/C19H26O3/c1-7-8-13-12(4)16(10-15(13)20)22-18(21)17-14(9-11(2)3)19(17,5)6/h7,9,14,16-17H,1,8,10H2,2-6H3","ZCVAOQKBXKSDMS-UHFFFAOYSA-N","CC(C)=CC1C(C(=O)OC2CC(=O)C(=C2C)CC=C)C1(C)C","-4.8179","0.0","1","G1","302.41400000000004","4.002000000000003","87.21000000000005","22.0","3.0","0.0","3.0","5.0","120.0","0.0","1.0","2.0","2.0","43.370000000000005","132.6643271129517","2.067252683908675","573.4877160391027"
"B-1237","alanine, n-(aminocarbonyl)-","InChI=1S/C4H8N2O3/c1-2(3(7)8)6-4(5)9/h2H,1H3,(H,7,8)(H3,5,6,9)/t2-/m0/s1","LUSWEUMSEVLFEQ-REOHCLBHSA-N","C[C@H](NC(N)=O)C(O)=O","-0.7845","0.0","1","G1","132.119","-0.8721999999999999","29.816899999999997","9.0","2.0","3.0","5.0","2.0","52.0","0.0","0.0","0.0","0.0","92.41999999999999","51.84110820392367","3.632432151939845","133.77443751081734"
"B-1238","phenol, 3-(1,1-dimethylethyl)-","InChI=1S/C10H14O/c1-10(2,3)8-5-4-6-9(11)7-8/h4-7,11H,1-3H3","CYEKUDPFXBLGHH-UHFFFAOYSA-N","CC(C)(C)c1cccc(O)c1","-1.8614","0.0","1","G1","150.22099999999998","2.689700000000001","46.80680000000004","11.0","1.0","1.0","1.0","0.0","60.0","1.0","0.0","0.0","1.0","20.23","67.6854053292794","3.0599016922179834","245.29484428381983"