"ID","Name","InChI","InChIKey","SMILES","Solubility","SD","Ocurrences","Group","MolWt","MolLogP","MolMR","HeavyAtomCount","NumHAcceptors","NumHDonors","NumHeteroatoms","NumRotatableBonds","NumValenceElectrons","NumAromaticRings","NumSaturatedRings","NumAliphaticRings","RingCount","TPSA","LabuteASA","BalabanJ","BertzCT"
"B-1435","resorufin","InChI=1S/C12H7NO3/c14-7-1-3-9-11(5-7)16-12-6-8(15)2-4-10(12)13-9/h1-6,14H","HSSLDCABUXLXKM-UHFFFAOYSA-N","Oc1ccc2N=C3C=CC(=O)C=C3Oc2c1","-1.0277","0.0","1","G1","213.19199999999998","1.9984","58.565800000000024","16.0","4.0","1.0","4.0","0.0","78.0","1.0","0.0","2.0","3.0","63.330000000000005","90.12940739462711","2.4567938837279555","702.1986770175091"
"B-1436","4(1h)-pyrimidinone, 2,3-dihydro-5-methyl-2-thiox","InChI=1S/C5H6N2OS/c1-3-2-6-5(9)7-4(3)8/h2H,1H3,(H2,6,7,8,9)","ZLAQATDNGLKIEV-UHFFFAOYSA-N","CC1=CNC(=S)NC1=O","-2.4461","0.0","1","G1","142.18300000000002","0.74091","36.984399999999994","9.0","2.0","2.0","4.0","0.0","48.0","1.0","0.0","0.0","1.0","48.65","56.75594354303524","3.523897718994017","311.2243004823359"
"B-1440","1-cyclohexene-1-carboxylic acid","InChI=1S/C7H10O2/c8-7(9)6-4-2-1-3-5-6/h4H,1-3,5H2,(H,8,9)","NMEZJSDUZQOPFE-UHFFFAOYSA-N","OC(=O)C1=CCCCC1","-1.2558","0.0","1","G1","126.155","1.5714000000000001","34.1868","9.0","1.0","1.0","2.0","1.0","50.0","0.0","0.0","1.0","1.0","37.3","54.1892253807355","2.5651030326084734","146.99514061050084"
"B-1441","p-benzoquinone oxime","InChI=1S/C6H5NO2/c8-6-3-1-5(7-9)2-4-6/h1-4,8H","JSTCPNFNKICNNO-UHFFFAOYSA-N","Oc1ccc(cc1)N=O","-1.5462","0.0","1","G1","123.11099999999999","1.7900999999999998","33.561800000000005","9.0","3.0","1.0","3.0","1.0","46.0","1.0","0.0","0.0","1.0","49.660000000000004","51.920368855923456","3.0097819477866","204.80277455217384"
"B-1442","isopropyl propionate","InChI=1S/C6H12O2/c1-4-6(7)8-5(2)3/h5H,4H2,1-3H3","IJMWOMHMDSDKGK-UHFFFAOYSA-N","CCC(=O)OC(C)C","-1.2906","0.0","1","G1","116.15999999999998","1.3479999999999999","31.518999999999984","8.0","2.0","0.0","2.0","2.0","48.0","0.0","0.0","0.0","0.0","26.3","49.83902892936323","3.2455794433140843","76.59772060569361"
"B-1444","ethyl t-butyl ether","InChI=1S/C6H14O/c1-5-7-6(2,3)4/h5H2,1-4H3","NUMQCACRALPSHD-UHFFFAOYSA-N","CCOC(C)(C)C","-0.9302","0.3522024006499999","2","G3","102.17699999999999","1.8214000000000001","31.37899999999998","7.0","1.0","0.0","1.0","1.0","44.0","0.0","0.0","0.0","0.0","9.23","45.67750682931947","3.154490065368808","42.63193444574935"
"B-1445","4h-1,3,5-dithiazine, dihydro-2,4,6-trimethyl-,","InChI=1S/C6H13NS2/c1-4-7-5(2)9-6(3)8-4/h4-7H,1-3H3","FBMVFHKKLDGLJA-UHFFFAOYSA-N","CC1NC(C)SC(C)S1","-1.3679","0.0","1","G1","163.311","2.094","46.703700000000026","9.0","3.0","1.0","3.0","0.0","54.0","0.0","1.0","1.0","1.0","12.03","65.35421268062188","2.3408516164378748","72.03910001730775"
"B-1446","1,3-diacetylurea","InChI=1S/C5H8N2O3/c1-3(8)6-5(10)7-4(2)9/h1-2H3,(H2,6,7,8,9,10)","UJQLDFMZDSDZEY-UHFFFAOYSA-N","CC(=O)NC(=O)NC(C)=O","-0.3137","0.0","1","G1","144.12999999999997","-0.6214","33.029399999999995","10.0","3.0","2.0","5.0","0.0","56.0","0.0","0.0","0.0","0.0","75.27000000000001","57.783310152763356","3.6488831196816527","157.73187676776786"
"B-1447","tridecanoic acid","InChI=1S/C13H26O2/c1-2-3-4-5-6-7-8-9-10-11-12-13(14)15/h2-12H2,1H3,(H,14,15)","SZHOJFHSIKHZHA-UHFFFAOYSA-N","CCCCCCCCCCCCC(O)=O","-3.8126","0.0","1","G1","214.34899999999996","4.382000000000003","64.09680000000006","15.0","1.0","1.0","2.0","11.0","90.0","0.0","0.0","0.0","0.0","37.3","94.07431225282866","2.8946809694676436","143.47137920080513"
"B-1448","thiometon","InChI=1S/C6H15O2PS3/c1-4-11-5-6-12-9(10,7-2)8-3/h4-6H2,1-3H3","OPASCBHCTNRLRM-UHFFFAOYSA-N","CCSCCS[P](=S)(OC)OC","-3.0905","0.0","1","G1","246.35899999999998","2.990000000000001","63.76000000000004","12.0","5.0","0.0","6.0","7.0","74.0","0.0","0.0","0.0","0.0","18.46","88.07911457776108","3.5223947479401634","145.72862410467505"
"B-1449","fluoroacetamide","InChI=1S/C2H4FNO/c3-1-2(4)5/h1H2,(H2,4,5)","FVTWJXMFYOXOKK-UHFFFAOYSA-N","NC(=O)CF","1.1132","0.0","1","G1","77.05799999999999","-0.5588000000000002","15.169400000000001","5.0","1.0","1.0","3.0","1.0","30.0","0.0","0.0","0.0","0.0","43.09","28.77114134220887","2.8473789230876716","44.912609383243264"
"B-1450","glycochenodeoxycholic acid","InChI=1S/C26H43NO5/c1-15(4-7-22(30)27-14-23(31)32)18-5-6-19-24-20(9-11-26(18,19)3)25(2)10-8-17(28)12-16(25)13-21(24)29/h15-21,24,28-29H,4-14H2,1-3H3,(H,27,30)(H,31,32)/t15-,16+,17-,18-,19+,20+,21-,24+,25+,26-/m1/s1","GHCZAUBVMUEKKP-GYPHWSFCSA-N","C[C@H](CCC(=O)NCC(O)=O)[C@H]1CC[C@H]2[C@@H]3[C@H](O)C[C@@H]4C[C@H](O)CC[C@]4(C)[C@H]3CC[C@]12C","-5.1546","0.0","1","G1","449.63200000000035","3.594100000000001","121.65710000000009","32.0","4.0","4.0","6.0","6.0","182.0","0.0","4.0","4.0","4.0","106.86000000000001","192.09508691391144","1.4383940208981985","727.0057983269172"
"B-1451","acetyl benzoyl peroxide","InChI=1S/C9H8O4/c1-7(10)12-13-9(11)8-5-3-2-4-6-8/h2-6H,1H3","PDAVOLCVHOKLEO-UHFFFAOYSA-N","CC(=O)OOC(=O)c1ccccc1","-2.4502","0.0","1","G1","180.15900000000002","1.3215","43.62350000000002","13.0","4.0","0.0","4.0","1.0","68.0","1.0","0.0","0.0","1.0","52.6","75.00565943752639","2.544573341953591","304.6505572752991"
"B-1452","4-propylphenol","InChI=1S/C9H12O/c1-2-3-8-4-6-9(10)7-5-8/h4-7,10H,2-3H2,1H3","KLSLBUSXWBJMEC-UHFFFAOYSA-N","CCCc1ccc(O)cc1","-2.0276","0.0","1","G1","136.19399999999996","2.3447000000000005","42.10180000000002","10.0","1.0","1.0","1.0","2.0","54.0","1.0","0.0","0.0","1.0","20.23","61.3204632148828","2.693803452362809","188.3881691811921"
"B-1454","1,3,5-triazin-2(1h)-one, 4,6-diamino-","InChI=1S/C3H5N5O/c4-1-6-2(5)8-3(9)7-1/h(H5,4,5,6,7,8,9)","MASBWURJQFFLOO-UHFFFAOYSA-N","NC1=NC(=O)N=C(N)N1","-3.2291","0.0","1","G1","127.107","-1.6707","31.477500000000003","9.0","5.0","3.0","6.0","0.0","48.0","1.0","0.0","0.0","1.0","110.68","49.9316505564057","3.332334626732985","241.9007718109344"
"B-1456","1,3-dioxalane","InChI=1S/C3H6O2/c1-2-5-3-4-1/h1-3H2","WNXJIVFYUVYPPR-UHFFFAOYSA-N","C1COCO1","1.1303","0.0","1","G1","74.079","-0.009299999999999975","16.771000000000004","5.0","2.0","0.0","2.0","0.0","30.0","0.0","1.0","1.0","1.0","18.46","30.690394562107297","2.083333333333333","16.464393446710154"
"B-1457","5-aminopentanoic acid","InChI=1S/C5H11NO2/c6-4-2-1-3-5(7)8/h1-4,6H2,(H,7,8)","JJMDCOVWQOJGCB-UHFFFAOYSA-N","NCCCCC(O)=O","0.9313","0.0","1","G1","117.14799999999998","0.20000000000000012","30.54119999999999","8.0","2.0","2.0","3.0","4.0","48.0","0.0","0.0","0.0","0.0","63.32","48.49466603466847","2.822354554248032","72.82892142331043"
"B-1458","l-homoserine","InChI=1S/C4H9NO3/c5-3(1-2-6)4(7)8/h3,6H,1-2,5H2,(H,7,8)/t3-/m0/s1","UKAUYVFTDYCKQA-VKHMYHEASA-N","N[C@@H](CCO)C(O)=O","0.924","0.0","1","G1","119.11999999999998","-1.2193000000000003","27.313999999999993","8.0","3.0","3.0","4.0","3.0","48.0","0.0","0.0","0.0","0.0","83.55000000000001","46.92395767246788","3.3180871972839956","83.35260810785708"
"B-1459","simetone","InChI=1S/C8H15N5O/c1-4-9-6-11-7(10-5-2)13-8(12-6)14-3/h4-5H2,1-3H3,(H2,9,10,11,12,13)","HKAMKLBXTLTVCN-UHFFFAOYSA-N","CCNc1nc(NCC)nc(OC)n1","-1.7898","0.0","1","G1","197.242","0.7437999999999999","54.70640000000002","14.0","6.0","2.0","6.0","5.0","78.0","1.0","0.0","0.0","1.0","71.96000000000001","83.1283272310425","2.8800387311360462","266.8101696986081"
"B-1460","hexamethylphosphoramide","InChI=1S/C6H18N3OP/c1-7(2)11(10,8(3)4)9(5)6/h1-6H3","GNOIPBMMFNIUFM-UHFFFAOYSA-N","CN(C)[P](=O)(N(C)C)N(C)C","0.7467","0.0","1","G1","179.204","0.7792999999999999","48.66750000000003","11.0","1.0","0.0","5.0","3.0","68.0","0.0","0.0","0.0","0.0","26.790000000000006","69.30169063779014","4.690791012693442","138.6810057963953"
"B-1461","ethanesulfonothioic acid, s-ethyl ester","InChI=1S/C4H10O2S2/c1-3-7-8(5,6)4-2/h3-4H2,1-2H3","OICGFSUWXCJLCO-UHFFFAOYSA-N","CCS[S](=O)(=O)CC","-1.109","0.0","1","G1","154.25599999999997","1.0892","37.59280000000001","8.0","3.0","0.0","4.0","3.0","50.0","0.0","0.0","0.0","0.0","34.14","53.98254786452086","3.755111608192775","136.11730005192322"
"B-1462","dibutyl dichloro tin","InChI=1S/2C4H9.2ClH.Sn/c2*1-3-4-2;;;/h2*1,3-4H2,2H3;2*1H;/q;;;;+2/p-2","RJGHQTVXGKYATR-UHFFFAOYSA-L","CCCC[Sn](Cl)(Cl)CCCC","-3.5188","0.0","1","G1","303.84900000000016","4.506400000000004","56.89000000000004","11.0","0.0","0.0","3.0","6.0","68.0","0.0","0.0","0.0","0.0","0.0","81.95465727676928","3.4340255805815305","84.09284782231803"
"B-1463","ethane, 1,2-dibromo-1,2-dichloro-","InChI=1S/C2H2Br2Cl2/c3-1(5)2(4)6/h1-2H","RJMDFMUPJANPGX-UHFFFAOYSA-N","ClC(Br)C(Cl)Br","-2.5644","0.0","1","G1","256.752","2.9060000000000006","37.136","6.0","0.0","0.0","4.0","1.0","38.0","0.0","0.0","0.0","0.0","0.0","63.44582080727223","2.9934972434784735","30.52932501298081"
"B-1464","acetamide, 2,2-dichloro-","InChI=1S/C2H3Cl2NO/c3-1(4)2(5)6/h1H,(H2,5,6)","WCGGWVOVFQNRRS-UHFFFAOYSA-N","NC(=O)C(Cl)Cl","-0.2558","0.0","1","G1","127.958","0.2754","24.6884","6.0","1.0","1.0","4.0","1.0","36.0","0.0","0.0","0.0","0.0","43.09","45.21213839304599","3.2575861612334887","62.568425030288566"
"B-1465","1-nitroso-1-methylurea","InChI=1S/C2H5N3O2/c1-5(4-7)2(3)6/h1H3,(H2,3,6)","ZRKWMRDKSOPRRS-UHFFFAOYSA-N","CN(N=O)C(N)=O","-0.8548","0.0","1","G1","103.081","-0.3216999999999998","23.141399999999997","7.0","3.0","1.0","5.0","1.0","40.0","0.0","0.0","0.0","0.0","75.75999999999999","40.030307613951464","3.551713608029699","90.93569696954752"
"B-1466","d-glucose, 2-deoxy-2-[(ethoxycarbonyl)amino]-","InChI=1S/C9H17NO7/c1-2-17-9(16)10-5(3-11)7(14)8(15)6(13)4-12/h3,5-8,12-15H,2,4H2,1H3,(H,10,16)/t5-,6+,7+,8+/m0/s1","HFLAZFSCYHSMQS-LXGUWJNJSA-N","CCOC(=O)N[C@@H](C=O)[C@@H](O)[C@H](O)[C@H](O)CO","0.1139","0.0","1","G1","251.235","-2.6249999999999987","55.11590000000003","17.0","7.0","5.0","8.0","7.0","100.0","0.0","0.0","0.0","0.0","136.32","97.82217456498893","4.434827287389607","247.49886832260793"
"B-1467","1-buten-3-yne","InChI=1S/C4H4/c1-3-4-2/h1,4H,2H2","WFYPICNXBKQZGB-UHFFFAOYSA-N","C=CC#C","-1.4648","0.0","1","G1","52.076","0.8055999999999999","19.029999999999998","4.0","0.0","0.0","0.0","0.0","20.0","0.0","0.0","0.0","0.0","0.0","26.14369973069439","2.9217836800202113","45.548875021634686"
"B-1468","4-methyl-1-pentene","InChI=1S/C6H12/c1-4-5-6(2)3/h4,6H,1,5H2,2-3H3","WSSSPWUEQFSQQG-UHFFFAOYSA-N","CC(C)CC=C","-3.2439","0.07423083419999976","2","G3","84.16199999999999","2.2184999999999997","29.651999999999983","6.0","0.0","0.0","0.0","2.0","36.0","0.0","0.0","0.0","0.0","0.0","39.874358567628335","2.8141442217770303","35.302968908806456"
"B-1472","2(1h)-pyridinone, 1-methyl-","InChI=1S/C6H7NO/c1-7-5-3-2-4-6(7)8/h2-5H,1H3","DVVGIUUJYPYENY-UHFFFAOYSA-N","CN1C=CC=CC1=O","0.9621","0.0","1","G1","109.12799999999999","0.38529999999999986","31.68299999999999","8.0","2.0","0.0","2.0","0.0","42.0","1.0","0.0","0.0","1.0","22.0","47.38748680147917","3.3466073908691203","225.97018649302458"
"B-1473","benzene, iodyl-","InChI=1S/C6H5IO2/c8-7(9)6-4-2-1-3-5-6/h1-5H","BDOLQESNFGCNSC-UHFFFAOYSA-N","O=[I](=O)c1ccccc1","-1.8416","0.0","1","G1","236.008","2.0536","40.53200000000002","9.0","2.0","0.0","3.0","1.0","48.0","1.0","0.0","0.0","1.0","34.14","60.04274075807905","3.1264726818773076","243.0201872896982"
"B-1474","benzenamine, n,3-dimethyl-","InChI=1S/C8H11N/c1-7-4-3-5-8(6-7)9-2/h3-6,9H,1-2H3","FBGJJTQNZVNEQU-UHFFFAOYSA-N","CNc1cccc(C)c1","-2.05","0.0","1","G1","121.18299999999998","2.03672","40.72570000000001","9.0","1.0","1.0","1.0","1.0","48.0","1.0","0.0","0.0","1.0","12.03","55.71114953189822","2.9368661023365914","193.51405299160075"
"B-1476","3-ethyl-5-methylphenol","InChI=1S/C9H12O/c1-3-8-4-7(2)5-9(10)6-8/h4-6,10H,3H2,1-2H3","XTCHLXABLZQNNN-UHFFFAOYSA-N","CCc1cc(C)cc(O)c1","-1.7696","0.0","1","G1","136.194","2.26302","42.22180000000002","10.0","1.0","1.0","1.0","1.0","54.0","1.0","0.0","0.0","1.0","20.23","61.3204632148828","3.061688151345299","207.91991743324436"
"B-1477","5-methyl-2-nitrophenol","InChI=1S/C7H7NO3/c1-5-2-3-6(8(10)11)7(9)4-5/h2-4,9H,1H3","NQXUSSVLFOBRSE-UHFFFAOYSA-N","Cc1ccc(c(O)c1)[N+]([O-])=O","-2.7505","0.0","1","G1","153.137","1.6088199999999997","39.49820000000002","11.0","3.0","1.0","4.0","1.0","58.0","1.0","0.0","0.0","1.0","63.37","63.243554708589386","3.1960696621259204","295.7372022742227"
"B-1478","4-hydroxypteridine","InChI=1S/C6H4N4O/c11-6-4-5(9-3-10-6)8-2-1-7-4/h1-3H,(H,8,9,10,11)","UWWUXWWWOUNMKW-UHFFFAOYSA-N","O=C1N=CNc2nccnc12","-1.4716","0.0","1","G1","148.12499999999997","-0.28689999999999993","37.9537","11.0","4.0","1.0","5.0","0.0","54.0","2.0","0.0","0.0","2.0","71.53","61.15318167506198","3.0307899009392414","430.28037088475946"
"B-1479","2-pteridinamine","InChI=1S/C6H5N5/c7-6-10-3-4-5(11-6)9-2-1-8-4/h1-3H,(H2,7,9,10,11)","HYCZDWGCJOEHBO-UHFFFAOYSA-N","Nc1ncc2nccnc2n1","-2.2979","0.0","1","G1","147.141","0.0019999999999998352","39.540400000000005","11.0","5.0","1.0","5.0","0.0","54.0","2.0","0.0","0.0","2.0","77.58","62.33155027203094","2.8289012156206956","385.38435586878836"
"B-1480","octachlorocyclopentene","InChI=1S/C5Cl8/c6-1-2(7)4(10,11)5(12,13)3(1,8)9","DMZRCHJVWAKCAX-UHFFFAOYSA-N","ClC1=C(Cl)C(Cl)(Cl)C(Cl)(Cl)C1(Cl)Cl","-6.5362","0.0","1","G1","343.679","5.2109","62.04300000000001","13.0","0.0","0.0","8.0","0.0","76.0","0.0","0.0","1.0","1.0","0.0","114.92971511475587","3.3850408671123398","248.25897357879657"
"B-1481","1-methyl uric acid","InChI=1S/C6H6N4O3/c1-10-4(11)2-3(9-6(10)13)8-5(12)7-2/h1H3,(H,9,13)(H2,7,8,12)","QFDRTQONISXGJA-UHFFFAOYSA-N","CN1C(=O)NC2=C(NC(=O)N2)C1=O","-1.5614","0.0","1","G1","182.13899999999998","-1.7568000000000001","44.781099999999995","13.0","4.0","3.0","7.0","0.0","68.0","2.0","0.0","0.0","2.0","103.50999999999999","70.04065191620926","3.1928379794973214","625.5923872590882"
"B-1482","thiourea, 3-(nitrophenyl)-","InChI=1S/C7H7N3O2S/c8-7(13)9-5-2-1-3-6(4-5)10(11)12/h1-4H,(H3,8,9,13)","HQEMUQNZGCZHHN-UHFFFAOYSA-N","NC(=S)Nc1cccc(c1)[N+]([O-])=O","-1.4499","0.0","1","G1","197.21899999999997","1.2503","53.5045","13.0","3.0","2.0","6.0","2.0","68.0","1.0","0.0","0.0","1.0","81.19","79.697854084219","2.9143561914867706","353.34582078313053"
"B-1483","1-ph-3,5-dime-4-nitrosopyrazole","InChI=1S/C11H11N3O/c1-8-11(13-15)9(2)14(12-8)10-6-4-3-5-7-10/h3-7H,1-2H3","SCHFUNOUOHIHSX-UHFFFAOYSA-N","Cc1nn(c2ccccc2)c(C)c1N=O","-3.7355","0.0","1","G1","201.22899999999996","2.8870400000000016","58.49300000000002","15.0","4.0","0.0","4.0","2.0","76.0","2.0","0.0","0.0","2.0","47.25","87.52034699554554","2.5990816045647405","488.0341831446438"
"B-1484","anthracene-9-carboxylic acid","InChI=1S/C15H10O2/c16-15(17)14-12-7-3-1-5-10(12)9-11-6-2-4-8-13(11)14/h1-9H,(H,16,17)","XGWFJBFNAQHLEF-UHFFFAOYSA-N","OC(=O)c1c2ccccc2cc3ccccc13","-3.4174","0.0","1","G1","222.243","3.691200000000001","68.41330000000002","17.0","1.0","1.0","2.0","1.0","82.0","3.0","0.0","0.0","3.0","37.3","98.11543014960378","2.606456150492522","675.1558752388429"
"B-1486","tolyfluanide","InChI=1S/C10H13Cl2FN2O2S2/c1-8-4-6-9(7-5-8)15(18-10(11,12)13)19(16,17)14(2)3/h4-7H,1-3H3","HYVWIQDYBVKITD-UHFFFAOYSA-N","CN(C)[S](=O)(=O)N(SC(F)(Cl)Cl)c1ccc(C)cc1","-5.5864","0.0","1","G1","347.26400000000007","3.314420000000002","79.40080000000003","19.0","3.0","0.0","9.0","5.0","108.0","1.0","0.0","0.0","1.0","40.620000000000005","126.33754771321705","3.2412240324996495","529.4557883959"
"B-1488","2,4,6-tri(tert-butyl)phenol","InChI=1S/C18H30O/c1-16(2,3)12-10-13(17(4,5)6)15(19)14(11-12)18(7,8)9/h10-11,19H,1-9H3","PFEFOYRSMXVNEL-UHFFFAOYSA-N","CC(C)(C)c1cc(c(O)c(c1)C(C)(C)C)C(C)(C)C","-3.875","1.3723422575500002","2","G2","262.43699999999995","5.284700000000005","84.20680000000007","19.0","1.0","1.0","1.0","0.0","108.0","1.0","0.0","0.0","1.0","20.23","118.60494224445225","3.6764828130596046","426.92947976472794"
"B-1489","bensulide","InChI=1S/C14H24NO4PS3/c1-12(2)18-20(21,19-13(3)4)22-11-10-15-23(16,17)14-8-6-5-7-9-14/h5-9,12-13,15H,10-11H2,1-4H3","RRNIZKPFKNDSRS-UHFFFAOYSA-N","CC(C)O[P](=S)(OC(C)C)SCCN[S](=O)(=O)c1ccccc1","-4.2014","0.0","1","G1","397.52400000000006","3.7726000000000024","100.81550000000004","23.0","6.0","1.0","9.0","10.0","132.0","1.0","0.0","0.0","1.0","64.63","148.05362106327618","2.553910805634569","606.169366771198"
"B-1490","dimethyltin dichloride","InChI=1S/2CH3.2ClH.Sn/h2*1H3;2*1H;/q;;;;+2/p-2","PKKGKUDPKRTKLJ-UHFFFAOYSA-L","C[Sn](C)(Cl)Cl","-1.0407","0.8071477385","2","G2","219.687","2.1658","29.187999999999988","5.0","0.0","0.0","3.0","0.0","32.0","0.0","0.0","0.0","0.0","0.0","43.76500459038964","3.0237157840738176","23.11941547876375"
"B-1492","hexaethyl tetraphosphate","InChI=1S/C12H30O13P4/c1-7-17-26(13,18-8-2)23-28(15,21-11-5)25-29(16,22-12-6)24-27(14,19-9-3)20-10-4/h7-12H2,1-6H3","DAJYZXUXDOSMCG-UHFFFAOYSA-N","CCO[P](=O)(OCC)O[P](=O)(OCC)O[P](=O)(OCC)O[P](=O)(OCC)OCC","0.2956","0.0","1","G1","506.2550000000003","5.687600000000006","103.43700000000007","29.0","13.0","0.0","17.0","18.0","176.0","0.0","0.0","0.0","0.0","151.35","170.9739640496545","5.88708098496001","579.7057510019242"
"B-1493","n-ethyl-n-nitrosourea","InChI=1S/C3H7N3O2/c1-2-6(5-8)3(4)7/h2H2,1H3,(H2,4,7)","FUSGACRLAFQQRL-UHFFFAOYSA-N","CCN(N=O)C(N)=O","-0.9547","0.0","1","G1","117.10799999999999","0.06840000000000013","27.758399999999995","8.0","3.0","1.0","5.0","2.0","46.0","0.0","0.0","0.0","0.0","75.75999999999999","46.39524972834807","3.6923370937539612","102.70165766734146"
"B-1495","propanedioic acid, heptyl-","InChI=1S/C10H18O4/c1-2-3-4-5-6-7-8(9(11)12)10(13)14/h8H,2-7H2,1H3,(H,11,12)(H,13,14)","YSFZWUJOBANROZ-UHFFFAOYSA-N","CCCCCCCC(C(O)=O)C(O)=O","-2.0411","0.0","1","G1","202.25","2.1323000000000003","52.13760000000003","14.0","2.0","2.0","4.0","8.0","82.0","0.0","0.0","0.0","0.0","74.6","83.9352417618786","3.622554555305487","174.56101971664077"
"B-1496","octylmalonic acid","InChI=1S/C11H20O4/c1-2-3-4-5-6-7-8-9(10(12)13)11(14)15/h9H,2-8H2,1H3,(H,12,13)(H,14,15)","QJGNSTCICFBACB-UHFFFAOYSA-N","CCCCCCCCC(C(O)=O)C(O)=O","-2.92","0.0","1","G1","216.277","2.5223999999999998","56.75460000000003","15.0","2.0","2.0","4.0","9.0","88.0","0.0","0.0","0.0","0.0","74.6","90.30018387627521","3.5480303389238355","186.7646023491586"
"B-1498","1-chloro-2-fluoroethane","InChI=1S/C2H4ClF/c3-1-2-4/h1-2H2","VEZJSKSPVQQGIS-UHFFFAOYSA-N","FCCCl","-0.5291","0.0","1","G1","82.505","1.1947","16.695","4.0","0.0","0.0","2.0","1.0","26.0","0.0","0.0","0.0","0.0","0.0","29.57299477203406","1.9747448713915894","8.0"
"B-1499","2-methyl-1-pentene","InChI=1S/C6H12/c1-4-5-6(2)3/h2,4-5H2,1,3H3","WWUVJRULCWHUSA-UHFFFAOYSA-N","CCCC(C)=C","-3.033","0.0","1","G1","84.16199999999999","2.3626000000000005","29.721999999999984","6.0","0.0","0.0","0.0","2.0","36.0","0.0","0.0","0.0","0.0","0.0","39.87435856762834","2.831257109931365","44.0"
"B-1501","2,5-dimethyl-2,4-hexadiene","InChI=1S/C8H14/c1-7(2)5-6-8(3)4/h5-6H,1-4H3","DZPCYXCBXGQBRN-UHFFFAOYSA-N","CC(C)=CC=C(C)C","-3.537","0.0","1","G1","110.19999999999999","2.918800000000002","38.862","8.0","0.0","0.0","0.0","1.0","46.0","0.0","0.0","0.0","0.0","0.0","51.914639764237286","3.760065916884882","92.0"
"B-1503","glycidylaldehyde","InChI=1S/C3H4O2/c4-1-3-2-5-3/h1,3H,2H2","IWYRWIUNAVNFPE-UHFFFAOYSA-N","O=CC1CO1","1.1423","0.0","1","G1","72.063","-0.41590000000000005","15.804000000000002","5.0","2.0","0.0","2.0","1.0","28.0","0.0","1.0","1.0","1.0","29.6","29.738371432644183","2.2145461012997294","46.854752972273346"
"B-1504","o-chloroanisole","InChI=1S/C7H7ClO/c1-9-7-5-3-2-4-6(7)8/h2-5H,1H3","QGRPVMLBTFGQDQ-UHFFFAOYSA-N","COc1ccccc1Cl","-2.4639","0.0","1","G1","142.58499999999998","2.3486000000000002","38.00400000000001","9.0","1.0","0.0","2.0","1.0","48.0","1.0","0.0","0.0","1.0","9.23","59.213156690282126","3.0065240073265844","197.86256853719752"
"B-1505","2-amino-4,6-dimethylpyrimidine","InChI=1S/C6H9N3/c1-4-3-5(2)9-6(7)8-4/h3H,1-2H3,(H2,7,8,9)","IDQNBVFPZMCDDN-UHFFFAOYSA-N","Cc1cc(C)nc(N)n1","-0.4884","0.0","1","G1","123.15900000000002","0.6756399999999999","35.91839999999999","9.0","3.0","1.0","3.0","0.0","48.0","1.0","0.0","0.0","1.0","51.8","53.940474007195924","3.165670309917317","169.06517765499825"