"ID","Name","InChI","InChIKey","SMILES","Solubility","SD","Ocurrences","Group","MolWt","MolLogP","MolMR","HeavyAtomCount","NumHAcceptors","NumHDonors","NumHeteroatoms","NumRotatableBonds","NumValenceElectrons","NumAromaticRings","NumSaturatedRings","NumAliphaticRings","RingCount","TPSA","LabuteASA","BalabanJ","BertzCT"
"B-870","14h-dibenzo[a,j]phenothiazine","InChI=1S/C20H13NS/c1-3-7-15-13(5-1)9-11-17-19(15)21-20-16-8-4-2-6-14(16)10-12-18(20)22-17/h1-12,21H","FCTDXVQYLPZTNX-UHFFFAOYSA-N","N1c2c(Sc3ccc4ccccc4c13)ccc5ccccc25","-7.9081","0.0","1","G1","299.398","6.201200000000003","95.30170000000001","22.0","2.0","1.0","2.0","0.0","104.0","4.0","0.0","1.0","5.0","12.03","132.51896744447546","1.80413923819318","952.8917298804256"
"B-871","7h-dibenzo[c,h]phenothiazine","InChI=1S/C20H13NS/c1-3-7-15-13(5-1)9-11-17-19(15)22-20-16-8-4-2-6-14(16)10-12-18(20)21-17/h1-12,21H","PTOPHPNCDGAXGC-UHFFFAOYSA-N","N1c2ccc3ccccc3c2Sc4c1ccc5ccccc45","-6.8786","0.0","1","G1","299.398","6.201200000000003","95.30170000000003","22.0","2.0","1.0","2.0","0.0","104.0","4.0","0.0","1.0","5.0","12.03","132.5189674444755","1.8041392381931805","952.8917298804256"
"B-872","12h-benzo[c]phenothiazine","InChI=1S/C16H11NS/c1-2-6-12-11(5-1)9-10-15-16(12)17-13-7-3-4-8-14(13)18-15/h1-10,17H","PGIGZWJIJSINOD-UHFFFAOYSA-N","N1c2ccccc2Sc3ccc4ccccc4c13","-5.8957","0.0","1","G1","249.338","5.048000000000002","77.79570000000002","18.0","2.0","1.0","2.0","0.0","86.0","3.0","0.0","1.0","4.0","12.03","109.83730291274026","1.9787199317432071","748.9230670745937"
"B-873","7h-benzo[c]phenothiazine","InChI=1S/C16H11NS/c1-2-6-12-11(5-1)9-10-14-16(12)18-15-8-4-3-7-13(15)17-14/h1-10,17H","WUTNPRKQMZJXTR-UHFFFAOYSA-N","N1c2ccccc2Sc3c1ccc4ccccc34","-6.5727","0.0","1","G1","249.338","5.048000000000003","77.79570000000004","18.0","2.0","1.0","2.0","0.0","86.0","3.0","0.0","1.0","4.0","12.03","109.83730291274027","1.978719931743207","748.9230670745937"
"B-874","dibenz(a,h)acridine","InChI=1S/C21H13N/c1-3-7-17-14(5-1)11-12-20-19(17)13-16-10-9-15-6-2-4-8-18(15)21(16)22-20/h1-13H","JNCSIWAONQTVCF-UHFFFAOYSA-N","c1ccc2c(c1)ccc3nc4c(ccc5ccccc45)cc23","-6.2447","0.0","1","G1","279.342","5.6944000000000035","94.26100000000004","22.0","1.0","0.0","1.0","0.0","102.0","5.0","0.0","0.0","5.0","12.89","127.37770922738432","2.0194254860819045","1076.6666469437955"
"B-875","phenanthridine","InChI=1S/C13H9N/c1-2-6-11-10(5-1)9-14-13-8-4-3-7-12(11)13/h1-9H","RDOWQLZANAYVLL-UHFFFAOYSA-N","c1ccc2c(c1)cnc3ccccc23","-2.7763","0.0","1","G1","179.22199999999998","3.388000000000001","59.249000000000024","14.0","1.0","0.0","1.0","0.0","66.0","3.0","0.0","0.0","3.0","12.89","82.0143801639139","2.610318687415942","544.2063511621126"
"B-876","1h-1,2,3-triazolo[4,5-d]pyrimidine","InChI=1S/C4H3N5/c1-3-4(6-2-5-1)8-9-7-3/h1-2H,(H,5,6,7,8,9)","GIIGHSIIKVOWKZ-UHFFFAOYSA-N","[nH]1nc2cncnc2n1","-0.2319","0.0","1","G1","121.103","-0.25210000000000016","29.4787","9.0","4.0","1.0","5.0","0.0","44.0","2.0","0.0","0.0","2.0","67.35","50.13772713284197","2.9546597902851044","282.93578074630994"
"B-877","1,4-diazabicyclo(2,2,2)octane  (dabco)","InChI=1S/C6H12N2/c1-2-8-5-3-7(1)4-6-8/h1-6H2","IMNIMPAHZVJRPE-UHFFFAOYSA-N","C1CN2CCN1CC2","0.6033","0.0","1","G1","112.176","-0.3824000000000001","32.87999999999999","8.0","2.0","0.0","2.0","0.0","46.0","0.0","3.0","3.0","3.0","6.48","50.071966633160855","2.0315872925159697","61.50977500432693"
"B-879","iso-oxazole","InChI=1S/C3H3NO/c1-2-4-5-3-1/h1-3H","CTAPFRYPJLPFDF-UHFFFAOYSA-N","o1cccn1","0.3827","0.0","1","G1","69.063","0.6746000000000001","16.503","5.0","2.0","0.0","2.0","0.0","26.0","1.0","0.0","0.0","1.0","26.03","29.396736670289634","3.1250000000000004","63.369930610534254"
"B-880","pyridazine","InChI=1S/C4H4N2/c1-2-4-6-5-3-1/h1-4H","PBMFSQRYOILNGV-UHFFFAOYSA-N","c1ccnnc1","1.0964","0.0","1","G1","80.08999999999999","0.4765999999999999","22.031999999999996","6.0","2.0","0.0","2.0","0.0","30.0","1.0","0.0","0.0","1.0","25.78","35.83915264979472","3.000000000000001","77.47078006212229"
"B-881","pyrimidine","InChI=1S/C4H4N2/c1-2-5-4-6-3-1/h1-4H","CZPWVGJYEJSRLH-UHFFFAOYSA-N","c1cncnc1","1.0964","0.0","1","G1","80.08999999999999","0.4765999999999999","22.031999999999996","6.0","2.0","0.0","2.0","0.0","30.0","1.0","0.0","0.0","1.0","25.78","35.870699081389986","3.000000000000001","77.47078006212229"
"B-882","cycloheptane","InChI=1S/C7H14/c1-2-4-6-7-5-3-1/h1-7H2","DMEGYFMYUHOHGS-UHFFFAOYSA-N","C1CCCCCC1","-3.5149","0.0","1","G1","98.18900000000001","2.7307000000000015","32.31899999999998","7.0","0.0","0.0","0.0","0.0","42.0","0.0","1.0","1.0","1.0","0.0","45.92307256067998","2.0416666666666665","19.651484454403228"
"B-883","thionazin","InChI=1S/C8H13N2O3PS/c1-3-11-14(15,12-4-2)13-8-7-9-5-6-10-8/h5-7H,3-4H2,1-2H3","IRVDMKJLOCGUBJ-UHFFFAOYSA-N","CCO[P](=S)(OCC)Oc1cnccn1","-2.338","0.0","1","G1","248.244","2.1529","60.197000000000024","15.0","6.0","0.0","7.0","6.0","84.0","1.0","0.0","0.0","1.0","53.47","94.05103133070999","2.706849273086979","325.91848358463807"
"B-884","phosphamidon","InChI=1S/C10H19ClNO5P/c1-6-12(7-2)10(13)9(11)8(3)17-18(14,15-4)16-5/h6-7H2,1-5H3/b9-8+","RGCLLPNLLBQHPF-CMDGGOBGSA-N","CCN(CC)C(=O)/C(Cl)=C(/C)O[P](=O)(OC)OC","0.5233","0.0","1","G1","299.69100000000003","2.7426000000000013","69.19050000000004","18.0","5.0","0.0","8.0","7.0","106.0","0.0","0.0","0.0","0.0","65.07000000000001","112.44899538533929","5.01806028081648","359.2795397887988"
"B-886","demeton-o","InChI=1S/C8H19O3PS2/c1-4-9-12(13,10-5-2)11-7-8-14-6-3/h4-8H2,1-3H3","DGLIBALSRMUQDD-UHFFFAOYSA-N","CCO[P](=S)(OCC)OCCSCC","-3.634","0.0","1","G1","258.3449999999999","3.053600000000001","66.48800000000004","14.0","5.0","0.0","6.0","9.0","86.0","0.0","0.0","0.0","0.0","27.69","96.13751964570463","3.7767972529836142","167.96932691749925"
"B-887","1,2:3,4-diepoxybutane dl","InChI=1S/C4H6O2/c1-3(5-1)4-2-6-4/h3-4H,1-2H2","ZFIVKAOQEXOYFY-UHFFFAOYSA-N","C1OC1C2CO2","1.065","0.0","1","G1","86.09","-0.21599999999999997","19.479999999999997","6.0","2.0","0.0","2.0","1.0","34.0","0.0","2.0","2.0","2.0","25.06","36.04950552297468","1.9155467020454342","53.94833690207419"
"B-891","l-tyrosine, 3,5-dibromo-","InChI=1S/C9H9Br2NO3/c10-5-1-4(2-6(11)8(5)13)3-7(12)9(14)15/h1-2,7,13H,3,12H2,(H,14,15)/t7-/m0/s1","COESHZUDRKCEPA-ZETCQYMHSA-N","N[C@@H](Cc1cc(Br)c(O)c(Br)c1)C(O)=O","-1.9281","0.0","1","G1","338.98300000000006","1.8716000000000002","62.82200000000001","15.0","3.0","3.0","6.0","3.0","82.0","1.0","0.0","0.0","1.0","83.55000000000001","103.35120497541803","2.9237270307423464","371.9390010832792"
"B-893","oxydemeton methyl","InChI=1S/C6H15O4PS2/c1-4-13(8)6-5-12-11(7,9-2)10-3/h4-6H2,1-3H3","PMCVMORKVPSKHZ-UHFFFAOYSA-N","CC[S](=O)CCS[P](=O)(OC)OC","0.6086","0.0","1","G1","246.28999999999996","1.8890999999999998","57.63290000000004","13.0","5.0","0.0","7.0","7.0","80.0","0.0","0.0","0.0","0.0","52.60000000000001","85.49994132723387","3.7437098947519436","200.81093255154832"
"B-894","hydrazine","InChI=1S/H4N2/c1-2/h1-2H2","OAKJQQAXSVQMHS-UHFFFAOYSA-N","NN","1.4942","0.0","1","G1","32.046","-1.1812","8.3748","2.0","2.0","2.0","2.0","0.0","14.0","0.0","0.0","0.0","0.0","52.04","13.024226327693349","1.0","0.0"
"B-896","aconitine","InChI=1S/C34H47NO11/c1-7-35-15-31(16-41-3)20(37)13-21(42-4)33-19-14-32(40)28(45-30(39)18-11-9-8-10-12-18)22(19)34(46-17(2)36,27(38)29(32)44-6)23(26(33)35)24(43-5)25(31)33/h8-12,19-29,37-38,40H,7,13-16H2,1-6H3/t19-,20-,21+,22-,23+,24+,25-,26?,27+,28-,29+,31+,32-,33+,34-/m1/s1","XFSBVAOIAHNAPC-XTHSEXKGSA-N","CCN1C[C@]2(COC)[C@H](O)C[C@H](OC)[C@@]34[C@@H]5C[C@]6(O)[C@@H](OC)[C@H](O)[C@](OC(C)=O)([C@@H]([C@H](OC)[C@H]23)C14)[C@H]5[C@H]6OC(=O)c7ccccc7","-3.3187","0.0","1","G1","645.7460000000002","0.6481000000000052","160.46789999999967","46.0","12.0","3.0","12.0","9.0","254.0","1.0","6.0","6.0","7.0","153.45000000000002","268.7616459053468","1.529326211999944","1363.559419221025"
"B-897","meparfynol carbamate","InChI=1S/C7H11NO2/c1-4-7(3,5-2)10-6(8)9/h1H,5H2,2-3H3,(H2,8,9)","GXCDLJXPZVCHBX-UHFFFAOYSA-N","CCC(C)(OC(N)=O)C#C","-0.9456","0.0","1","G1","141.17","0.8836000000000002","38.1974","10.0","2.0","1.0","3.0","2.0","56.0","0.0","0.0","0.0","0.0","52.32","60.54308713263183","4.099978336000516","170.93514528563796"
"B-900","potassium sodium tartrate","InChI=1S/C4H6O6.K.Na/c5-1(3(7)8)2(6)4(9)10;;/h1-2,5-6H,(H,7,8)(H,9,10);;/q;2*+1/p-2/t1-,2-;;/m1../s1","LJCNRYVRMXRIQR-OLXYHTOASA-L","[Na+].[K+].O[C@H]([C@@H](O)C([O-])=O)C([O-])=O","0.3984","0.7108473757810697","9","G4","210.15799999999993","-10.783999999999999","22.027599999999996","12.0","6.0","2.0","8.0","3.0","58.0","0.0","0.0","0.0","0.0","120.72","132.67002089796551","-4.049999586000043e-07","143.6270750562502"
"B-901","1,1,1-trifluoro-2,2-dichloroethane","InChI=1S/C2HCl2F3/c3-1(4)2(5,6)7/h1H","OHMHBGPWCHTMQE-UHFFFAOYSA-N","FC(F)(F)C(Cl)Cl","-1.8623","0.0","1","G1","152.93","2.3524000000000003","21.548999999999996","7.0","0.0","0.0","5.0","0.0","44.0","0.0","0.0","0.0","0.0","0.0","48.20733180476821","3.5411969650799016","56.44547197387445"
"B-903","2-chlorovinyl diethyl phosphate","InChI=1S/C6H12ClO4P/c1-3-9-12(8,10-4-2)11-6-5-7/h5-6H,3-4H2,1-2H3/b6-5+","DKMDOBOUUAGJNY-AATRIKPKSA-N","CCO[P](=O)(OCC)O\C=C\Cl","-1.3316","0.0","1","G1","214.585","2.8941000000000017","46.936500000000024","12.0","4.0","0.0","6.0","6.0","72.0","0.0","0.0","0.0","0.0","44.760000000000005","77.06787115750572","4.07767269290778","172.38689879982144"
"B-905","bromacil","InChI=1S/C9H13BrN2O2/c1-4-5(2)12-8(13)7(10)6(3)11-9(12)14/h5H,4H2,1-3H3,(H,11,14)","CTSLUCNDVMMDHG-UHFFFAOYSA-N","CCC(C)N1C(=O)NC(=C(Br)C1=O)C","-2.5057","0.008650000000000047","2","G3","261.11899999999997","1.57852","58.76170000000002","14.0","3.0","1.0","5.0","2.0","78.0","1.0","0.0","0.0","1.0","54.86","90.09597294569724","3.5290815358714664","447.1056682573318"
"B-906","isocil","InChI=1S/C8H11BrN2O2/c1-4(2)11-7(12)6(9)5(3)10-8(11)13/h4H,1-3H3,(H,10,13)","PSYBGEADHLUXCS-UHFFFAOYSA-N","CC(C)N1C(=O)NC(=C(Br)C1=O)C","-2.0604","0.0","1","G1","247.09199999999996","1.1884199999999998","54.144700000000014","13.0","3.0","1.0","5.0","1.0","72.0","1.0","0.0","0.0","1.0","54.86","83.73103083130063","3.641474186869312","430.75065909617945"
"B-907","mexacarbate","InChI=1S/C12H18N2O2/c1-8-6-10(16-12(15)13-3)7-9(2)11(8)14(4)5/h6-7H,1-5H3,(H,13,15)","YNEVBPNZHBAYOA-UHFFFAOYSA-N","CNC(=O)Oc1cc(C)c(N(C)C)c(C)c1","-3.3469","0.0","1","G1","222.28799999999998","2.08764","65.32670000000003","16.0","3.0","1.0","4.0","2.0","88.0","1.0","0.0","0.0","1.0","41.57","96.20581898923865","3.0480394338762635","377.0003882453518"
"B-908","isoleucine","InChI=1S/C6H13NO2/c1-3-4(2)5(7)6(8)9/h4-5H,3,7H2,1-2H3,(H,8,9)","AGPKZVBTJJNPAG-UHFFFAOYSA-N","CCC(C)C(N)C(O)=O","-0.5033","0.0746","2","G3","131.17499999999998","0.44439999999999996","35.06619999999998","9.0","2.0","2.0","3.0","3.0","54.0","0.0","0.0","0.0","0.0","63.32","54.859608149065075","3.7161367711827205","103.23098268032228"
"B-909","5-chlorosalicylic acid","InChI=1S/C7H5ClO3/c8-4-1-2-6(9)5(3-4)7(10)11/h1-3,9H,(H,10,11)","NKBASRXWGAGQDP-UHFFFAOYSA-N","OC(=O)c1cc(Cl)ccc1O","-1.237","0.7665","2","G2","172.567","1.7437999999999998","40.07610000000001","11.0","2.0","2.0","4.0","1.0","58.0","1.0","0.0","0.0","1.0","57.53","67.84960106521103","3.232208870305491","295.7372022742226"
"B-910","1-fluoronaphthalene","InChI=1S/C10H7F/c11-10-7-3-5-8-4-1-2-6-9(8)10/h1-7H","CWLKTJOTWITYSI-UHFFFAOYSA-N","Fc1cccc2ccccc12","-3.4527","0.0","1","G1","146.164","2.978900000000001","43.90600000000002","11.0","0.0","0.0","1.0","0.0","54.0","2.0","0.0","0.0","2.0","0.0","64.2786030541584","2.9131611636048604","374.03449039867854"
"B-911","acetamide, n-(4-fluoro-2-methylphenyl)-","InChI=1S/C9H10FNO/c1-6-5-8(10)3-4-9(6)11-7(2)12/h3-5H,1-2H3,(H,11,12)","RJKWSTDTEPBWBJ-UHFFFAOYSA-N","CC(=O)Nc1ccc(F)cc1C","-1.3593","0.0","1","G1","167.183","2.0925199999999995","45.44070000000002","12.0","1.0","1.0","3.0","1.0","64.0","1.0","0.0","0.0","1.0","29.1","70.40314914926483","2.9348021246299894","309.39688695312145"
"B-912","acetamide, n-(2-fluoro-4-methylphenyl)-","InChI=1S/C9H10FNO/c1-6-3-4-9(8(10)5-6)11-7(2)12/h3-5H,1-2H3,(H,11,12)","WHXUSWHUWNRNHT-UHFFFAOYSA-N","CC(=O)Nc1ccc(C)cc1F","-1.7403","0.0","1","G1","167.18299999999996","2.0925199999999995","45.440700000000014","12.0","1.0","1.0","3.0","1.0","64.0","1.0","0.0","0.0","1.0","29.1","70.40314914926482","2.9348021246299894","309.39688695312145"
"B-913","1,2,4,5-tetrafluorobenzene","InChI=1S/C6H2F4/c7-3-1-4(8)6(10)2-5(3)9/h1-2H","SDXUIOOHCIQXRP-UHFFFAOYSA-N","Fc1cc(F)c(F)cc1F","-2.3757","0.0","1","G1","150.07399999999998","2.2430000000000003","26.274","10.0","0.0","0.0","4.0","0.0","54.0","1.0","0.0","0.0","1.0","0.0","54.09354473120191","3.2824629074535228","205.9198833722299"
"B-914","a-aminocaproic acid","InChI=1S/C6H13NO2/c1-2-3-4-5(7)6(8)9/h5H,2-4,7H2,1H3,(H,8,9)/t5-/m0/s1","LRQKBLKVPFOOQJ-YFKPBYRVSA-N","CCCC[C@H](N)C(O)=O","-1.0387","0.0","1","G1","131.17499999999998","0.5884999999999998","35.13619999999998","9.0","2.0","2.0","3.0","4.0","54.0","0.0","0.0","0.0","0.0","63.32","54.859608149065075","3.2659073992264416","93.05865002596164"
"B-915","chlorogenic acid","InChI=1S/C16H18O9/c17-9-3-1-8(5-10(9)18)2-4-13(20)25-12-7-16(24,15(22)23)6-11(19)14(12)21/h1-5,11-12,14,17-19,21,24H,6-7H2,(H,22,23)/b4-2+/t11-,12-,14-,16+/m1/s1","CWVRJTMFETXNAD-JUHZACGLSA-N","O[C@@H]1C[C@](O)(C[C@@H](OC(=O)\C=C\c2ccc(O)c(O)c2)[C@@H]1O)C(O)=O","-0.9473","0.0","1","G1","354.31100000000004","-0.6459000000000004","82.51880000000001","25.0","8.0","6.0","9.0","4.0","136.0","1.0","1.0","1.0","2.0","164.75","141.58738202052004","2.05888368559587","698.8458476325027"
"B-916","leucine","InChI=1S/C6H13NO2/c1-4(2)3-5(7)6(8)9/h4-5H,3,7H2,1-2H3,(H,8,9)","ROHFNLRQFUQHCH-UHFFFAOYSA-N","CC(C)CC(N)C(O)=O","-1.0456","0.1616350672074675","4","G5","131.17499999999998","0.44439999999999996","35.06619999999998","9.0","2.0","2.0","3.0","3.0","54.0","0.0","0.0","0.0","0.0","63.32","54.859608149065075","3.5016884512730915","101.23098268032228"
"B-917","cyclohexyl methylphosphonofluoridate","InChI=1S/C7H14FO2P/c1-11(8,9)10-7-5-3-2-4-6-7/h7H,2-6H2,1H3","SNTRKUOVAPUGAY-UHFFFAOYSA-N","C[P](F)(=O)OC1CCCCC1","-1.6875","0.0","1","G1","180.15899999999993","3.1281000000000017","42.59650000000002","11.0","2.0","0.0","4.0","2.0","66.0","0.0","1.0","1.0","1.0","26.3","66.70076413209574","2.301757339685183","159.82350886146332"
"B-919","o-fluorobenzyl chloride","InChI=1S/C7H6ClF/c8-5-6-3-1-2-4-7(6)9/h1-4H,5H2","MOBRMRJUKNQBMY-UHFFFAOYSA-N","Fc1ccccc1CCl","-2.541","0.0","1","G1","144.576","2.5645000000000007","35.95700000000001","9.0","0.0","0.0","2.0","1.0","48.0","1.0","0.0","0.0","1.0","0.0","58.26514686370148","3.0065240073265844","197.86256853719752"
"B-920","1-chloro-2-fluorobenzene","InChI=1S/C6H4ClF/c7-5-3-1-2-4-6(5)8/h1-4H","ZCJAYDKWZAWMPR-UHFFFAOYSA-N","Fc1ccccc1Cl","-2.4157","0.0","1","G1","130.54899999999998","2.4791000000000007","31.409999999999997","8.0","0.0","0.0","2.0","0.0","42.0","1.0","0.0","0.0","1.0","0.0","51.90020474930487","3.134861511345448","164.63833891467198"
"B-921","benzene, 1-fluoro-4-iodo-","InChI=1S/C6H4FI/c7-5-1-3-6(8)4-2-5/h1-4H","KGNQDBQYEBMPFZ-UHFFFAOYSA-N","Fc1ccc(I)cc1","-3.1257","0.0","1","G1","222.0","2.430300000000001","39.11700000000001","8.0","0.0","0.0","2.0","0.0","42.0","1.0","0.0","0.0","1.0","0.0","60.85877664346683","3.0324555320336755","147.38833891467198"
"B-923","fluoroethane","InChI=1S/C2H5F/c1-2-3/h2H2,1H3","UHCBBWUQDAVSMS-UHFFFAOYSA-N","CCF","-1.3477","0.0","1","G1","48.06","0.9758","11.649000000000003","3.0","0.0","0.0","1.0","0.0","20.0","0.0","0.0","0.0","0.0","0.0","19.269728545152393","1.6329931618554523","2.7548875021634682"
"B-925","l-histidine, 3-methyl-","InChI=1S/C7H11N3O2/c1-10-4-9-3-5(10)2-6(8)7(11)12/h3-4,6H,2,8H2,1H3,(H,11,12)/t6-/m0/s1","JDHILDINMRGULE-LURJTMIESA-N","Cn1cncc1C[C@H](N)C(O)=O","0.0727","0.0","1","G1","169.184","-0.6255000000000002","42.5232","12.0","4.0","2.0","5.0","3.0","66.0","1.0","0.0","0.0","1.0","81.14000000000001","69.82559801489202","2.636975221308557","281.9337850187939"
"B-926","benzenediazonium hexafluophosphate (1-)","InChI=1S/C6H5N2.F6P/c7-8-6-4-2-1-3-5-6;1-7(2,3,4,5)6/h1-5H;/q+1;-1","GIDPFONPWSEBOB-UHFFFAOYSA-N","F[P-](F)(F)(F)(F)F.N#[N+]c1ccccc1","-1.4438","0.0","1","G1","250.08200000000005","5.553580000000002","44.75400000000002","15.0","1.0","0.0","9.0","0.0","86.0","1.0","0.0","0.0","1.0","28.15","80.37911299911717","2.64999996436756e-07","351.22982928386824"
"B-927","2-fluoroethanol","InChI=1S/C2H5FO/c3-1-2-4/h4H,1-2H2","GGDYAKVUZMZKRV-UHFFFAOYSA-N","OCCF","1.1934","0.0","1","G1","64.059","-0.05180000000000007","13.060800000000002","4.0","1.0","1.0","2.0","1.0","26.0","0.0","0.0","0.0","0.0","20.23","24.063962297348407","1.9747448713915894","8.0"
"B-928","isopestox","InChI=1S/C6H16FN2OP/c1-5(2)8-11(7,10)9-6(3)4/h5-6H,1-4H3,(H2,8,9,10)","UOSHUBFBCPGQAY-UHFFFAOYSA-N","CC(C)N[P](F)(=O)NC(C)C","-0.3574","0.0","1","G1","182.179","2.0599999999999996","45.257900000000014","11.0","1.0","2.0","5.0","4.0","68.0","0.0","0.0","0.0","0.0","41.13","67.35358080232638","3.9078360952395634","146.6612728526066"
"B-930","1,1,1-trifluoro-2-propanol","InChI=1S/C3H5F3O/c1-2(7)3(4,5)6/h2,7H,1H3","GILIYJDBJZWGBG-UHFFFAOYSA-N","CC(O)C(F)(F)F","0.3094","0.0","1","G1","114.06600000000002","0.9295","17.7358","7.0","1.0","1.0","4.0","0.0","44.0","0.0","0.0","0.0","0.0","20.23","38.75997521759748","3.541196965079901","55.69058447171098"
"B-931","1,1-dichloro-1,2,2,2-tetrafluoroethane","InChI=1S/C2Cl2F4/c3-1(4,5)2(6,7)8","BAMUEXIPKSRTBS-UHFFFAOYSA-N","FC(F)(F)C(F)(Cl)Cl","-3.0961","0.0","1","G1","170.92000000000002","2.6496","21.6","8.0","0.0","0.0","6.0","0.0","50.0","0.0","0.0","0.0","0.0","0.0","52.37286720769444","4.020391543176799","67.01955000865388"
"B-932","acetic acid, difluoro-","InChI=1S/C2H2F2O2/c3-1(4)2(5)6/h1H,(H,5,6)","PBWZKZYHONABLN-UHFFFAOYSA-N","OC(=O)C(F)F","1.0176","0.0","1","G1","96.03200000000001","0.3361","13.639800000000001","6.0","1.0","1.0","4.0","1.0","36.0","0.0","0.0","0.0","0.0","37.3","32.391019800318404","3.2575861612334887","60.568425030288566"
"B-933","andrenosterone","InChI=1S/C19H24O3/c1-18-8-7-12(20)9-11(18)3-4-13-14-5-6-16(22)19(14,2)10-15(21)17(13)18/h9,13-14,17H,3-8,10H2,1-2H3/t13-,14-,17+,18-,19-/m0/s1","RZRPTBIGEANTGU-IRIMSJTPSA-N","C[C@]12CC(=O)[C@H]3[C@@H](CCC4=CC(=O)CC[C@]34C)[C@@H]1CCC2=O","-3.4843","0.0","1","G1","300.3980000000001","3.2664000000000017","82.10700000000004","22.0","3.0","0.0","3.0","0.0","118.0","0.0","3.0","4.0","4.0","51.21","131.07984774079864","1.7719840088155432","616.1698355860838"
"B-935","4-fluoro-2-propyl-phenol","InChI=1S/C9H11FO/c1-2-3-7-6-8(10)4-5-9(7)11/h4-6,11H,2-3H2,1H3","BQWYJUVFIXTFHH-UHFFFAOYSA-N","CCCc1cc(F)ccc1O","-1.8869999999999998","0.0","1","G1","154.18399999999997","2.483800000000001","42.059800000000024","11.0","1.0","1.0","2.0","2.0","60.0","1.0","0.0","0.0","1.0","20.23","65.48599861780903","2.927939142435774","245.3180909119066"
"B-936","nidroxyzone","InChI=1S/C8H10N4O5/c9-8(14)11(3-4-13)10-5-6-1-2-7(17-6)12(15)16/h1-2,5,13H,3-4H2,(H2,9,14)/b10-5+","FJVAAURIDNIYAE-BJMVGYQFSA-N","NC(=O)N(CCO)/N=C/c1oc(cc1)[N+]([O-])=O","-2.6852","0.0","1","G1","242.191","-0.10529999999999967","56.33160000000001","17.0","6.0","2.0","9.0","5.0","92.0","1.0","0.0","0.0","1.0","135.20000000000002","95.25941528921099","2.733254794853641","440.8788672571375"
"B-938","benzoic acid, 2-(trifluoromethyl)-","InChI=1S/C8H5F3O2/c9-8(10,11)6-4-2-1-3-5(6)7(12)13/h1-4H,(H,12,13)","FBRJYBGLCHWYOE-UHFFFAOYSA-N","OC(=O)c1ccccc1C(F)(F)F","-1.5978","0.0","1","G1","190.11999999999995","2.403600000000001","38.40330000000001","13.0","1.0","1.0","5.0","1.0","70.0","1.0","0.0","0.0","1.0","37.3","71.61364940930865","3.2832639201778533","330.40617847985413"