"ID","Name","InChI","InChIKey","SMILES","Solubility","SD","Ocurrences","Group","MolWt","MolLogP","MolMR","HeavyAtomCount","NumHAcceptors","NumHDonors","NumHeteroatoms","NumRotatableBonds","NumValenceElectrons","NumAromaticRings","NumSaturatedRings","NumAliphaticRings","RingCount","TPSA","LabuteASA","BalabanJ","BertzCT"
"B-2022","5,6-dimethylchrysene","InChI=1S/C20H16/c1-13-14(2)20-17-9-4-3-7-15(17)11-12-19(20)18-10-6-5-8-16(13)18/h3-12H,1-2H3","SDOJHDGZFOGOFD-UHFFFAOYSA-N","Cc1c(C)c2c3ccccc3ccc2c4ccccc14","-7.0109","0.0","1","G1","256.348","5.763040000000004","88.43400000000005","20.0","0.0","0.0","0.0","0.0","96.0","4.0","0.0","0.0","4.0","0.0","118.20628094349581","2.3923893547034303","955.5588177778452"
"B-2023","7-ethylbenz(a)anthracene","InChI=1S/C20H16/c1-2-16-18-10-6-4-8-15(18)13-20-17-9-5-3-7-14(17)11-12-19(16)20/h3-13H,2H2,1H3","HBFJJKFTOQAJHO-UHFFFAOYSA-N","CCc1c2ccccc2cc3c1ccc4ccccc34","-6.796","0.018000000000000238","2","G3","256.348","5.708600000000004","88.33800000000006","20.0","0.0","0.0","0.0","1.0","96.0","4.0","0.0","0.0","4.0","0.0","118.20628094349581","2.3005272171141313","932.2283742957518"
"B-2024","1,3-benzenedisulfonamide","InChI=1S/C6H8N2O4S2/c7-13(9,10)5-2-1-3-6(4-5)14(8,11)12/h1-4H,(H2,7,9,10)(H2,8,11,12)","HUYYFHGIHVULSU-UHFFFAOYSA-N","N[S](=O)(=O)c1cccc(c1)[S](N)(=O)=O","-2.1693","0.0","1","G1","236.27399999999997","-1.0185999999999997","49.18840000000001","14.0","4.0","2.0","8.0","2.0","78.0","1.0","0.0","0.0","1.0","120.32","81.63273629835255","3.436614784321693","499.69916585523896"
"B-2025","3,5-dimethylpyridine-n-oxide","InChI=1S/C7H9NO/c1-6-3-7(2)5-8(9)4-6/h3-5H,1-2H3","SSTLCMOZTCLOLQ-UHFFFAOYSA-N","Cc1cc(C)c[n+]([O-])c1","0.9095","0.0","1","G1","123.15499999999999","0.93684","34.876","9.0","1.0","0.0","2.0","0.0","48.0","1.0","0.0","0.0","1.0","26.939999999999998","54.339179067505995","3.165670309917317","169.67835570708544"
"B-2026","2-pyridinemethaneamine","InChI=1S/C6H8N2/c7-5-6-3-1-2-4-8-6/h1-4H,5,7H2","WOXFMYVTSLAQMO-UHFFFAOYSA-N","NCc1ccccn1","0.966","0.0","1","G1","108.14399999999998","0.5403000000000001","32.1284","8.0","2.0","1.0","2.0","1.0","42.0","1.0","0.0","0.0","1.0","38.91","48.3558839118528","2.8320858350070908","147.87452390041133"
"B-2027","4-pyridinemethaneamine","InChI=1S/C6H8N2/c7-5-6-1-3-8-4-2-6/h1-4H,5,7H2","TXQWFIVRZNOPCK-UHFFFAOYSA-N","NCc1ccncc1","0.966","0.0","1","G1","108.14399999999998","0.5403000000000001","32.1284","8.0","2.0","1.0","2.0","1.0","42.0","1.0","0.0","0.0","1.0","38.91","48.3558839118528","2.8320858350070908","147.87452390041133"
"B-2028","cyanthoate","InChI=1S/C10H19N2O4PS/c1-5-15-17(14,16-6-2)18-7-9(13)12-10(3,4)8-11/h5-7H2,1-4H3,(H,12,13)","TWDJIKFUVRYBJF-UHFFFAOYSA-N","CCO[P](=O)(OCC)SCC(=O)NC(C)(C)C#N","-0.6237","0.0","1","G1","294.31300000000005","2.3190800000000005","71.15120000000005","18.0","6.0","1.0","8.0","8.0","104.0","0.0","0.0","0.0","0.0","88.41999999999999","111.68941954636492","4.333509883249055","357.3794052589087"
"B-2029","parathion-amino","InChI=1S/C10H16NO3PS/c1-3-12-15(16,13-4-2)14-10-7-5-9(11)6-8-10/h5-8H,3-4,11H2,1-2H3","XIZOTXGJXSTQDI-UHFFFAOYSA-N","CCO[P](=S)(OCC)Oc1ccc(N)cc1","-2.826","0.0","1","G1","261.28299999999996","2.945100000000001","69.01940000000002","16.0","5.0","1.0","6.0","6.0","90.0","1.0","0.0","0.0","1.0","53.71","100.95162606582974","2.748340736579641","358.8318207440149"
"B-2030","fenclorim","InChI=1S/C10H6Cl2N2/c11-8-6-9(12)14-10(13-8)7-4-2-1-3-5-7/h1-6H","NRFQZTCQAYEXEE-UHFFFAOYSA-N","Clc1cc(Cl)nc(n1)c2ccccc2","-4.9544","0.0","1","G1","225.07800000000003","3.450400000000002","57.48800000000002","14.0","2.0","0.0","4.0","1.0","70.0","2.0","0.0","0.0","2.0","25.78","91.53432574121739","2.521303589694852","422.8799157979306"
"B-2031","cyclopentane, pentyl-","InChI=1S/C10H20/c1-2-3-4-7-10-8-5-6-9-10/h10H,2-9H2,1H3","HPQURZRDYMUHJI-UHFFFAOYSA-N","CCCCCC1CCCC1","-6.0863","0.0","1","G1","140.26999999999998","3.7569000000000026","46.10000000000002","10.0","0.0","0.0","0.0","4.0","60.0","0.0","1.0","1.0","1.0","0.0","65.0178989038698","1.9111701105978576","70.10749561002055"
"B-2032","2-[n-(2-Hydroxyethyl)-3-methyl-4-phenyldiazenylanilino]ethanol","InChI=1S/C17H21N3O2/c1-14-13-16(20(9-11-21)10-12-22)7-8-17(14)19-18-15-5-3-2-4-6-15/h2-8,13,21-22H,9-12H2,1H3","IXKVXPGDWDXXQM-UHFFFAOYSA-N","Cc1cc(ccc1N=Nc2ccccc2)N(CCO)CCO","-4.1254","0.0","1","G1","299.3740000000001","3.2014200000000037","88.18160000000005","22.0","5.0","2.0","5.0","7.0","116.0","2.0","0.0","0.0","2.0","68.42","130.10828691662857","2.1658797830782097","608.5560446706214"
"B-2033","sulfamethomidine","InChI=1S/C12H14N4O3S/c1-8-14-11(7-12(15-8)19-2)16-20(17,18)10-5-3-9(13)4-6-10/h3-7H,13H2,1-2H3,(H,14,15,16)","QKLSCPPJEVXONT-UHFFFAOYSA-N","COc1cc(N[S](=O)(=O)c2ccc(N)cc2)nc(C)n1","-2.543","0.0","1","G1","294.33600000000007","1.17662","74.98390000000002","20.0","6.0","2.0","8.0","4.0","106.0","2.0","0.0","0.0","2.0","107.2","116.42175151878993","2.3259791707111312","713.9823358039899"
"B-2034","benazolin","InChI=1S/C9H6ClNO3S/c10-5-2-1-3-6-8(5)11(4-7(12)13)9(14)15-6/h1-3H,4H2,(H,12,13)","HYJSGOXICXYZGS-UHFFFAOYSA-N","OC(=O)CN1C(=O)Sc2cccc(Cl)c12","-2.6087","0.0","1","G1","243.671","1.8010000000000004","58.73080000000001","15.0","4.0","1.0","6.0","2.0","78.0","2.0","0.0","0.0","2.0","59.3","93.33347879714394","2.764855679937048","586.5452489241367"
"B-2035","propanedioic acid, dihydrazide","InChI=1S/C3H8N4O2/c4-6-2(8)1-3(9)7-5/h1,4-5H2,(H,6,8)(H,7,9)","PSIKPHJLTVSQFO-UHFFFAOYSA-N","NNC(=O)CC(=O)NN","-0.121","0.0","1","G1","132.123","-2.6437","29.277200000000008","9.0","4.0","4.0","6.0","2.0","52.0","0.0","0.0","0.0","0.0","110.24","51.51195725842176","3.4713176263221484","108.9811553790729"
"B-2037","2-butanamine, 3,3-dimethyl-","InChI=1S/C6H15N/c1-5(7)6(2,3)4/h5H,7H2,1-4H3/p+1/t5-/m0/s1","DXSUORGKJZADET-YFKPBYRVSA-O","C[C@H]([NH3+])C(C)(C)C","0.9861","0.0","1","G1","102.201","0.6628999999999994","31.80509999999999","7.0","0.0","1.0","1.0","0.0","44.0","0.0","0.0","0.0","0.0","27.64","45.903852296825306","3.541196965079901","49.69058447171098"
"B-2039","d-gluconic acid, hydrazide","InChI=1S/C6H14N2O6/c7-8-6(14)5(13)4(12)3(11)2(10)1-9/h2-5,9-13H,1,7H2,(H,8,14)","DSSOAANULUSBGQ-UHFFFAOYSA-N","NNC(=O)C(O)C(O)C(O)C(O)CO","-0.4985","0.0","1","G1","210.18599999999998","-4.587799999999996","43.44310000000003","14.0","7.0","7.0","8.0","5.0","84.0","0.0","0.0","0.0","0.0","156.26999999999998","79.55654136169214","4.296163703795438","189.16054269564705"
"B-2040","fuberidazole","InChI=1S/C11H8N2O/c1-2-5-9-8(4-1)12-11(13-9)10-6-3-7-14-10/h1-7H,(H,12,13)","UYJUZNLFJAWNEZ-UHFFFAOYSA-N","[nH]1c2ccccc2nc1c3occc3","-3.4139999999999997","0.038000000000000256","2","G3","184.198","2.8229000000000006","53.79570000000002","14.0","2.0","1.0","3.0","1.0","68.0","3.0","0.0","0.0","3.0","41.82","80.39329952333385","2.2440947752499047","518.4490170061054"
"B-2041","10h-phenothiazine, 3-bromo-","InChI=1S/C12H8BrNS/c13-8-5-6-10-12(7-8)15-11-4-2-1-3-9(11)14-10/h1-7,14H","JEWIAYIESCUSKQ-UHFFFAOYSA-N","Brc1ccc2Nc3ccccc3Sc2c1","-6.1119","0.0","1","G1","278.17400000000004","4.657300000000001","67.98970000000001","15.0","2.0","1.0","3.0","0.0","74.0","2.0","0.0","1.0","3.0","12.03","101.02318598664642","2.108606050374169","524.7806108146203"
"B-2042","phenothiazine, 3-iodo-","InChI=1S/C12H8INS/c13-8-5-6-10-12(7-8)15-11-4-2-1-3-9(11)14-10/h1-7,14H","YWRPCJIZYVCDOG-UHFFFAOYSA-N","Ic1ccc2Nc3ccccc3Sc2c1","-6.9278","0.0","1","G1","325.1740000000001","4.499400000000001","73.00670000000002","15.0","2.0","1.0","3.0","0.0","74.0","2.0","0.0","1.0","3.0","12.03","106.41747650204871","2.108606050374169","524.7806108146203"
"B-2043","1,2-bis(2-chloroethylsulfonyl)ethane","InChI=1S/C6H12Cl2O4S2/c7-1-3-13(9,10)5-6-14(11,12)4-2-8/h1-6H2","FQMRVYDYXSOKHL-UHFFFAOYSA-N","ClCC[S](=O)(=O)CC[S](=O)(=O)CCCl","-1.4486","0.0","1","G1","283.198","0.2936000000000003","58.74760000000003","14.0","4.0","0.0","8.0","7.0","86.0","0.0","0.0","0.0","0.0","68.28","94.4212908171491","4.189486886758264","310.02779400832594"
"B-2044","alizarin complexone","InChI=1S/C19H15NO8/c21-13(22)7-20(8-14(23)24)6-9-5-12-15(19(28)16(9)25)18(27)11-4-2-1-3-10(11)17(12)26/h1-5,25,28H,6-8H2,(H,21,22)(H,23,24)","PWIGYBONXWGOQE-UHFFFAOYSA-N","OC(=O)CN(CC(O)=O)Cc1cc2C(=O)c3ccccc3C(=O)c2c(O)c1O","-1.8077","0.0","1","G1","385.32800000000015","0.8443999999999996","93.62720000000003","28.0","7.0","4.0","9.0","6.0","144.0","2.0","0.0","1.0","3.0","152.43999999999997","157.62011805197054","2.077270368327061","1010.8339616054124"
"B-2045","benzoic acid, 3-chloro-4-hydroxy-, methyl ester","InChI=1S/C8H7ClO3/c1-12-8(11)5-2-3-7(10)6(9)4-5/h2-4,10H,1H3","ZSBIMTDWIGWJPW-UHFFFAOYSA-N","COC(=O)c1ccc(O)c(Cl)c1","-2.873","0.0","1","G1","186.594","1.8321999999999998","44.45630000000002","12.0","3.0","1.0","4.0","1.0","64.0","1.0","0.0","0.0","1.0","46.53","74.5338546569185","3.0455637915397915","309.1713244639388"
"B-2046","2,2-dimethyl-3-pentanol","InChI=1S/C7H16O/c1-5-6(8)7(2,3)4/h6,8H,5H2,1-4H3","HMSVXZJWPVIVIV-UHFFFAOYSA-N","CCC(O)C(C)(C)C","-1.1514","0.0","1","G1","116.204","1.8034","35.75279999999999","8.0","1.0","1.0","1.0","1.0","50.0","0.0","0.0","0.0","0.0","20.23","51.723137466405205","3.623281003705976","61.27730243901708"
"B-2047","butanedioic acid, chloro-, (r)-","InChI=1S/C4H5ClO4/c5-2(4(8)9)1-3(6)7/h2H,1H2,(H,6,7)(H,8,9)/t2-/m1/s1","QEGKXSHUKXMDRW-UWTATZPHSA-N","OC(=O)C[C@@H](Cl)C(O)=O","-0.7953","0.5","2","G3","152.53300000000002","0.15310000000000018","29.52959999999999","9.0","2.0","2.0","5.0","3.0","52.0","0.0","0.0","0.0","0.0","74.6","56.0488553023806","3.6324321519398444","132.52932501298082"
"B-2048","propanedioic acid, hexyl-","InChI=1S/C9H16O4/c1-2-3-4-5-6-7(8(10)11)9(12)13/h7H,2-6H2,1H3,(H,10,11)(H,12,13)","UPFSMSDGKQSRLD-UHFFFAOYSA-N","CCCCCCC(C(O)=O)C(O)=O","-1.6566","0.0","1","G1","188.22299999999998","1.7422000000000002","47.520600000000016","13.0","2.0","2.0","4.0","7.0","76.0","0.0","0.0","0.0","0.0","74.6","77.57029964748197","3.7087999066177497","162.4535151183479"
"B-2049","2,3,6-trichlorophenoxyacetic acid","InChI=1S/C8H5Cl3O3/c9-4-1-2-5(10)8(7(4)11)14-3-6(12)13/h1-2H,3H2,(H,12,13)","GQOHYQAHKDLXCV-UHFFFAOYSA-N","OC(=O)COc1c(Cl)ccc(Cl)c1Cl","-2.6198","0.0","1","G1","255.484","3.1102000000000007","54.602800000000016","14.0","2.0","1.0","6.0","3.0","76.0","1.0","0.0","0.0","1.0","46.53","95.14038711068184","2.9450227685135126","365.0942913293867"
"B-2050","ethanone, 2-methoxy-1-phenyl-","InChI=1S/C9H10O2/c1-11-7-9(10)8-5-3-2-4-6-8/h2-6H,7H2,1H3","YRNDGUSDBCARGC-UHFFFAOYSA-N","COCC(=O)c1ccccc1","-0.7616","0.0","1","G1","150.177","1.5157","42.64850000000003","11.0","2.0","0.0","2.0","3.0","58.0","1.0","0.0","0.0","1.0","26.3","65.80129679223742","2.6930079504145","228.57786591623355"
"B-2051","n-(3-chlorallyl) hexaminium chloride","InChI=1S/C9H16ClN4.ClH/c10-2-1-3-14-7-11-4-12(8-14)6-13(5-11)9-14;/h1-2H,3-9H2;1H/q+1;/p-1/b2-1+;","UKHVLWKBNNSRRR-TYYBGVCCSA-M","[Cl-].Cl/C=C/C[N+]12CN3CN(CN(C3)C1)C2","0.0829","0.0","1","G1","251.16099999999994","-2.7484999999999955","54.83940000000003","15.0","3.0","0.0","6.0","2.0","86.0","0.0","4.0","4.0","4.0","9.72","101.65735709707039","8.533330226667825e-07","233.55374652283"
"B-2052","2-buten-1-ol (cis)","InChI=1S/C4H8O/c1-2-3-4-5/h2-3,5H,4H2,1H3/b3-2-","WCASXYBKJHWFMY-IHWYPQMZSA-N","C\C=C/CO","0.3621","0.3899500000000001","2","G3","72.107","0.5548","21.899799999999995","5.0","1.0","1.0","1.0","1.0","30.0","0.0","0.0","0.0","0.0","20.23","31.938708091031128","2.622415807990217","30.62919048309069"
"B-2053","ethane, 2-chloro-1,1,1-trinitro-","InChI=1S/C2H2ClN3O6/c3-1-2(4(7)8,5(9)10)6(11)12/h1H2","BDQJEJZWJJUQGU-UHFFFAOYSA-N","[O-][N+](=O)C(CCl)([N+]([O-])=O)[N+]([O-])=O","-0.2586","0.0","1","G1","199.506","-0.29090000000000016","34.43420000000001","12.0","6.0","0.0","10.0","4.0","68.0","0.0","0.0","0.0","0.0","129.42000000000002","69.36638653660722","5.185144767694768","202.90859697359193"
"B-2054","butanedioic acid, tetraethyl-","InChI=1S/C12H22O4/c1-5-11(6-2,9(13)14)12(7-3,8-4)10(15)16/h5-8H2,1-4H3,(H,13,14)(H,15,16)","CQCFISPMNREOQX-UHFFFAOYSA-N","CCC(CC)(C(O)=O)C(CC)(CC)C(O)=O","-2.9644","0.0","1","G1","230.30399999999995","2.7684000000000006","61.301600000000036","16.0","2.0","2.0","4.0","7.0","94.0","0.0","0.0","0.0","0.0","74.6","96.66512599067181","5.780992298907336","234.19232562657194"
"B-2055","propanoic acid, 3-butoxy-, methyl ester","InChI=1S/C8H16O3/c1-3-4-6-11-7-5-8(9)10-2/h3-7H2,1-2H3","VBCSBEIIIFLVQV-UHFFFAOYSA-N","CCCCOCCC(=O)OC","-1.2909","0.0","1","G1","160.213","1.3662","42.360000000000014","11.0","3.0","0.0","3.0","6.0","66.0","0.0","0.0","0.0","0.0","35.53","67.68245838766332","2.9549874302986416","101.51029297451521"
"B-2057","dipropetryne","InChI=1S/C11H21N5S/c1-6-17-11-15-9(12-7(2)3)14-10(16-11)13-8(4)5/h7-8H,6H2,1-5H3,(H2,12,13,14,15,16)","NPWMZOGDXOFZIN-UHFFFAOYSA-N","CCSc1nc(NC(C)C)nc(NC(C)C)n1","-4.2031","0.0","1","G1","255.39100000000002","2.624200000000001","73.74240000000003","17.0","6.0","2.0","6.0","6.0","96.0","1.0","0.0","0.0","1.0","62.730000000000004","107.23271837009067","2.914930496055376","325.4650689235082"
"B-2059","propanoic acid, 2-methyl-, 4-nitrophenyl ester","InChI=1S/C10H11NO4/c1-7(2)10(12)15-9-5-3-8(4-6-9)11(13)14/h3-7H,1-2H3","AIKAOGTVMFOQKJ-UHFFFAOYSA-N","CC(C)C(=O)Oc1ccc(cc1)[N+]([O-])=O","-3.9588","0.0","1","G1","209.20099999999996","2.1562","53.56940000000002","15.0","4.0","0.0","5.0","3.0","80.0","1.0","0.0","0.0","1.0","69.44","86.81921462913384","2.727326259883217","369.51370765387685"
"B-2060","propanoic acid, 3-methoxy-, butyl ester","InChI=1S/C8H16O3/c1-3-4-6-11-8(9)5-7-10-2/h3-7H2,1-2H3","RRIRSNXZGJWTQM-UHFFFAOYSA-N","CCCCOC(=O)CCOC","-1.2135","0.0","1","G1","160.21299999999997","1.3662","42.360000000000014","11.0","3.0","0.0","3.0","6.0","66.0","0.0","0.0","0.0","0.0","35.53","67.68245838766332","3.0894795282693237","101.51029297451521"
"B-2062","1,10-phenanthroline, 5-nitro-","InChI=1S/C12H7N3O2/c16-15(17)10-7-8-3-1-5-13-11(8)12-9(10)4-2-6-14-12/h1-7H","PDDBTWXLNJNICS-UHFFFAOYSA-N","[O-][N+](=O)c1cc2cccnc2c3ncccc13","-3.9172","0.0","1","G1","225.20699999999997","2.6912000000000003","63.69840000000002","17.0","4.0","0.0","5.0","1.0","82.0","3.0","0.0","0.0","3.0","68.92","95.88700386736019","2.590696146592083","739.9847966621533"
"B-2063","2,4(1h,3h)-pyrimidinedione, 5-ethyl-","InChI=1S/C6H8N2O2/c1-2-4-3-7-6(10)8-5(4)9/h3H,2H2,1H3,(H2,7,8,9,10)","RHIULBJJKFDJPR-UHFFFAOYSA-N","CCC1=CNC(=O)NC1=O","-1.9424","0.0","1","G1","140.14199999999997","-0.3744","37.061399999999985","10.0","2.0","2.0","4.0","1.0","54.0","1.0","0.0","0.0","1.0","65.72","56.923627510270734","3.3380830562755492","323.0099680885666"
"B-2064","l-aspartic acid, n-methyl-","InChI=1S/C5H9NO4/c1-6-3(5(9)10)2-4(7)8/h3,6H,2H2,1H3,(H,7,8)(H,9,10)","HOKKHZGPKSLGJE-UHFFFAOYSA-N","CNC(CC(O)=O)C(O)=O","-0.7544","0.0","1","G1","147.13","-0.8662999999999996","32.73629999999999","10.0","3.0","3.0","5.0","4.0","58.0","0.0","0.0","0.0","0.0","86.63","57.66039337350357","3.8334832964994003","144.58337707694835"
"B-2065","benzoic acid, 2,2'-(1-oxo-1,2-ethanediyl)bis-","InChI=1S/C16H12O5/c17-14(12-7-3-4-8-13(12)16(20)21)9-10-5-1-2-6-11(10)15(18)19/h1-8H,9H2,(H,18,19)(H,20,21)","YPNGOYFSQMSAOZ-UHFFFAOYSA-N","OC(=O)c1ccccc1CC(=O)c2ccccc2C(O)=O","-2.7910000000000004","0.0","1","G1","284.267","2.5084","74.83710000000002","21.0","3.0","2.0","5.0","5.0","106.0","2.0","0.0","0.0","2.0","91.66999999999999","120.02129958767078","2.3564076317417757","718.1122046858368"
"B-2066","1,3-benzenedicarboxylic acid, 4-nitro-","InChI=1S/C8H5NO6/c10-7(11)4-1-2-6(9(14)15)5(3-4)8(12)13/h1-3H,(H,10,11)(H,12,13)","OCJFXVHDIVAONP-UHFFFAOYSA-N","OC(=O)c1ccc(c(c1)C(O)=O)[N+]([O-])=O","-1.3391","0.0","1","G1","211.12899999999996","0.9911999999999999","47.01499999999999","15.0","4.0","2.0","7.0","3.0","78.0","1.0","0.0","0.0","1.0","117.74000000000001","82.72577477526953","3.3963489782409875","452.4451582999609"
"B-2067","4-chloroazobenzene","InChI=1S/C12H9ClN2/c13-10-6-8-12(9-7-10)15-14-11-4-2-1-3-5-11/h1-9H","NJFDMENHTAYHMA-UHFFFAOYSA-N","Clc1ccc(cc1)N=Nc2ccccc2","-5.7023","0.0","1","G1","216.671","4.7554000000000025","62.07000000000003","15.0","2.0","0.0","3.0","2.0","74.0","2.0","0.0","0.0","2.0","24.72","93.23854139693177","2.1529892819390977","448.8081523848772"
"B-2068","2h-1,3-oxazin-2-one, tetrahydro-3-[(5-nitrofurfu","InChI=1S/C9H9N3O5/c13-9-11(4-1-5-16-9)10-6-7-2-3-8(17-7)12(14)15/h2-3,6H,1,4-5H2/b10-6+","NOZLWTTVYNQLNJ-UXBLZVDNSA-N","[O-][N+](=O)c1oc(cc1)\C=N\N2CCCOC2=O","-3.4757","0.0","1","G1","239.18699999999993","1.3639999999999999","55.62740000000003","17.0","6.0","0.0","8.0","3.0","90.0","1.0","1.0","1.0","2.0","98.18","95.59794703037653","2.0323424511000088","466.95131193342166"
"B-2069","naphtho[2,1-b]furan-2(1)h-one","InChI=1S/C12H8O2/c13-12-7-10-9-4-2-1-3-8(9)5-6-11(10)14-12/h1-6H,7H2","KVLORZFYGDNPIQ-UHFFFAOYSA-N","O=C1Cc2c(O1)ccc3ccccc23","-2.7078","0.0","1","G1","184.194","2.3013000000000003","53.28700000000002","14.0","2.0","0.0","2.0","0.0","68.0","2.0","0.0","1.0","3.0","26.3","81.1121880560468","2.3857353309418894","528.8328093513567"
"B-2070","ajmaline","InChI=1S/C20H26N2O2/c1-3-10-11-8-14-17-20(12-6-4-5-7-13(12)21(17)2)9-15(16(11)18(20)23)22(14)19(10)24/h4-7,10-11,14-19,23-24H,3,8-9H2,1-2H3/t10-,11-,14-,15-,16?,17-,18?,19+,20+/m0/s1","CJDRUOGAGYHKKD-QFTSDIPNSA-N","CC[C@@H]1[C@@H](O)N2[C@H]3C[C@@H]1C4C(O)[C@@]5(C[C@H]24)[C@H]3N(C)c6ccccc56","-2.8266","0.0","1","G1","326.44000000000005","1.5545","91.73460000000006","24.0","4.0","2.0","4.0","1.0","128.0","1.0","5.0","6.0","7.0","46.940000000000005","142.6195717982021","1.595723318205141","723.3453291572417"
"B-2071","decylpropanedioic acid","InChI=1S/C13H24O4/c1-2-3-4-5-6-7-8-9-10-11(12(14)15)13(16)17/h11H,2-10H2,1H3,(H,14,15)(H,16,17)","HCUZVMHXDRSBKX-UHFFFAOYSA-N","CCCCCCCCCCC(C(O)=O)C(O)=O","-3.99","0.0","1","G1","244.331","3.302600000000001","65.98860000000005","17.0","2.0","2.0","4.0","11.0","100.0","0.0","0.0","0.0","0.0","74.6","103.03006810506844","3.431221635663612","211.45935200003711"
"B-2072","benzenemethanol, 2-hydroxy-5-methyl-","InChI=1S/C8H10O2/c1-6-2-3-8(10)7(4-6)5-9/h2-4,9-10H,5H2,1H3","ZUVDVLYXIZFDRM-UHFFFAOYSA-N","Cc1ccc(O)c(CO)c1","-0.3143","0.0","1","G1","138.166","1.1929199999999998","38.766600000000004","10.0","2.0","2.0","2.0","1.0","54.0","1.0","0.0","0.0","1.0","40.46","59.749754852682194","3.0906836464581975","230.69924244622516"
"B-2073","1h-pyrrole-2-carboxylic acid, 4-ethyl-5-formyl-3","InChI=1S/C11H15NO3/c1-4-8-7(3)10(11(14)15-5-2)12-9(8)6-13/h6,12H,4-5H2,1-3H3","ZPKWGTHVNZEDTD-UHFFFAOYSA-N","CCOC(=O)c1[nH]c(C=O)c(CC)c1C","-2.7186","0.0","1","G1","209.24499999999995","1.87472","56.25170000000003","15.0","3.0","1.0","4.0","4.0","82.0","1.0","0.0","0.0","1.0","59.160000000000004","88.63174777088192","3.1439756468869144","379.42990738267883"
"B-2074","niflumic acid","InChI=1S/C13H9F3N2O2/c14-13(15,16)8-3-1-4-9(7-8)18-11-10(12(19)20)5-2-6-17-11/h1-7H,(H,17,18)(H,19,20)","JZFPYUNJRRFVQU-UHFFFAOYSA-N","OC(=O)c1cccnc1Nc2cccc(c2)C(F)(F)F","-4.1718","0.3637548747286955","3","G5","282.221","3.542200000000001","65.923","20.0","3.0","2.0","7.0","3.0","104.0","2.0","0.0","0.0","2.0","62.22","111.44025377992726","2.337930511639871","641.5085495074974"
"B-2075","2-propanone, 1-(2-piperidinyl)-","InChI=1S/C8H15NO/c1-7(10)6-8-4-2-3-5-9-8/h8-9H,2-6H2,1H3","JEIZLWNUBXHADF-UHFFFAOYSA-N","CC(=O)CC1CCCCN1","-0.4509","0.0","1","G1","141.214","1.1076","40.93970000000001","10.0","2.0","1.0","2.0","2.0","58.0","0.0","1.0","1.0","1.0","29.1","61.999398958728385","2.1919163912003334","116.4259988171292"
"B-2077","3,4-hexanedione, dioxime","InChI=1S/C6H12N2O2/c1-3-5(7-9)6(4-2)8-10/h7,9H,3-4H2,1-2H3/b6-5+","XYYHQWXNCDZZLY-AATRIKPKSA-N","CC\C(NO)=C(\CC)N=O","-2.5525","0.0","1","G1","144.17399999999998","1.7631999999999999","38.3252","10.0","4.0","2.0","4.0","4.0","58.0","0.0","0.0","0.0","0.0","61.69","59.86722498714085","4.346018801671423","136.68324254705823"