"ID","Name","InChI","InChIKey","SMILES","Solubility","SD","Ocurrences","Group","MolWt","MolLogP","MolMR","HeavyAtomCount","NumHAcceptors","NumHDonors","NumHeteroatoms","NumRotatableBonds","NumValenceElectrons","NumAromaticRings","NumSaturatedRings","NumAliphaticRings","RingCount","TPSA","LabuteASA","BalabanJ","BertzCT"
"B-1308","acenaphthylene, 1,2-dihydro-5-nitro-","InChI=1S/C12H9NO2/c14-13(15)11-7-6-9-5-4-8-2-1-3-10(11)12(8)9/h1-3,6-7H,4-5H2","CUARLQDWYSRQDF-UHFFFAOYSA-N","[O-][N+](=O)c1ccc2CCc3cccc1c23","-5.3403","0.0","1","G1","199.209","2.8466000000000014","58.01040000000003","15.0","2.0","0.0","3.0","1.0","74.0","2.0","0.0","1.0","3.0","43.14","86.49009644899594","2.4838594029714876","564.8389820858141"
"B-1309","benzoic acid, 2,6-dibromo-3,4,5-trihydroxy-","InChI=1S/C7H4Br2O5/c8-2-1(7(13)14)3(9)5(11)6(12)4(2)10/h10-12H,(H,13,14)","RZMMKKHHNDGXPD-UHFFFAOYSA-N","OC(=O)c1c(Br)c(O)c(O)c(O)c1Br","-0.4188","0.0","1","G1","327.912","2.0266","53.795700000000004","14.0","4.0","4.0","7.0","1.0","76.0","1.0","0.0","0.0","1.0","97.99000000000001","94.8698975540041","3.682463305848331","386.0265607659981"
"B-1310","3-methyl-2,4,6-trinitrophenol","InChI=1S/C7H5N3O7/c1-3-4(8(12)13)2-5(9(14)15)7(11)6(3)10(16)17/h2,11H,1H3","YYGJRRYSYLLCQH-UHFFFAOYSA-N","Cc1c(cc(c(O)c1[N+]([O-])=O)[N+]([O-])=O)[N+]([O-])=O","-2.0434","0.0","1","G1","243.13099999999997","1.4252200000000008","52.806999999999995","17.0","7.0","1.0","10.0","3.0","90.0","1.0","0.0","0.0","1.0","149.64999999999998","92.54950615358896","3.7562550919635713","500.5091268239616"
"B-1311","proxyphylline","InChI=1S/C10H14N4O3/c1-6(15)4-14-5-11-8-7(14)9(16)13(3)10(17)12(8)2/h5-6,15H,4H2,1-3H3","KYHQZNGJUGFTGR-UHFFFAOYSA-N","CC(O)Cn1cnc2N(C)C(=O)N(C)C(=O)c12","0.623","0.0","1","G1","238.24699999999999","-1.185499999999999","61.895800000000015","17.0","7.0","1.0","7.0","2.0","92.0","2.0","0.0","0.0","2.0","82.04999999999998","96.55307499913856","2.858792204521248","677.1414431382049"
"B-1312","3-nitrophthalic acid","InChI=1S/C8H5NO6/c10-7(11)4-2-1-3-5(9(14)15)6(4)8(12)13/h1-3H,(H,10,11)(H,12,13)","KFIRODWJCYBBHY-UHFFFAOYSA-N","OC(=O)c1cccc(c1C(O)=O)[N+]([O-])=O","-1.0214","0.005700000000000038","2","G3","211.12899999999996","0.9911999999999999","47.01499999999999","15.0","4.0","2.0","7.0","3.0","78.0","1.0","0.0","0.0","1.0","117.74000000000001","82.72577477526953","3.55594512931231","420.1951582999609"
"B-1313","rosolic acid","InChI=1S/C19H14O3/c20-16-7-1-13(2-8-16)19(14-3-9-17(21)10-4-14)15-5-11-18(22)12-6-15/h1-12,20-21H","FYEHYMARPSSOBO-UHFFFAOYSA-N","Oc1ccc(cc1)C(c2ccc(O)cc2)=C3C=CC(=O)C=C3","-2.3837","0.0","1","G1","290.31800000000004","3.594800000000002","85.52260000000003","22.0","3.0","2.0","3.0","2.0","108.0","2.0","0.0","1.0","3.0","57.53","127.71844148069107","2.183559110463215","726.0788697398173"
"B-1314","benzoic acid, 2-benzoyl-, ethyl ester","InChI=1S/C16H14O3/c1-2-19-16(18)14-11-7-6-10-13(14)15(17)12-8-4-3-5-9-12/h3-11H,2H2,1H3","CGWFVEFHQWJOKI-UHFFFAOYSA-N","CCOC(=O)c1ccccc1C(=O)c2ccccc2","-3.4053","0.0","1","G1","254.285","3.0943000000000014","72.27300000000004","19.0","3.0","0.0","3.0","4.0","96.0","2.0","0.0","0.0","2.0","43.370000000000005","111.38485521274187","2.401903395514127","587.9528578552716"
"B-1315","2-hydroxyanthraquinone","InChI=1S/C14H8O3/c15-8-5-6-11-12(7-8)14(17)10-4-2-1-3-9(10)13(11)16/h1-7,15H","GCDBEYOJCZLKMC-UHFFFAOYSA-N","Oc1ccc2C(=O)c3ccccc3C(=O)c2c1","-5.3093","0.0","1","G1","224.215","2.1676","61.41380000000002","17.0","3.0","1.0","3.0","0.0","82.0","2.0","0.0","1.0","3.0","54.37","97.32982835310852","2.3304909398632216","656.2669402785393"
"B-1316","benzoic acid, 2-benzoyl-, methyl ester","InChI=1S/C15H12O3/c1-18-15(17)13-10-6-5-9-12(13)14(16)11-7-3-2-4-8-11/h2-10H,1H3","NQSMEZJWJJVYOI-UHFFFAOYSA-N","COC(=O)c1ccccc1C(=O)c2ccccc2","-3.4776","0.1513133466480771","3","G5","240.25799999999998","2.704200000000001","67.65600000000003","18.0","3.0","0.0","3.0","3.0","90.0","2.0","0.0","0.0","2.0","43.370000000000005","105.01991309834524","2.4583992544506077","573.3024023359151"
"B-1317","2,4(1h,3h)-quinazolinedione, 6,8-dinitro-","InChI=1S/C8H4N4O6/c13-7-4-1-3(11(15)16)2-5(12(17)18)6(4)9-8(14)10-7/h1-2H,(H2,9,10,13,14)","COWHVSLHGUONGN-UHFFFAOYSA-N","[O-][N+](=O)c1cc2C(=O)NC(=O)Nc2c(c1)[N+]([O-])=O","-3.2057","0.0","1","G1","252.142","0.03279999999999972","58.49819999999999","18.0","6.0","2.0","10.0","2.0","92.0","2.0","0.0","0.0","2.0","151.99999999999997","96.18135925821231","3.037497527380838","788.2542591603229"
"B-1318","1-methyl-2(h)-quinolinone","InChI=1S/C10H9NO/c1-11-9-5-3-2-4-8(9)6-7-10(11)12/h2-7H,1H3","QYEMNJMSULGQRD-UHFFFAOYSA-N","CN1C(=O)C=Cc2ccccc12","-1.0466","0.0","1","G1","159.188","1.5385","49.18900000000002","12.0","2.0","0.0","2.0","0.0","60.0","2.0","0.0","0.0","2.0","22.0","70.06915133321438","3.005244075626373","470.46742834865574"
"B-1319","4-hydroxy-2-methylquinoline","InChI=1S/C10H9NO/c1-7-6-10(12)8-4-2-3-5-9(8)11-7/h2-6H,1H3,(H,11,12)","NWINIEGDLHHNLH-UHFFFAOYSA-N","CC1=CC(=O)c2ccccc2N1","-1.2019","0.0","1","G1","159.188","1.8365199999999997","49.305700000000016","12.0","1.0","1.0","2.0","0.0","60.0","2.0","0.0","0.0","2.0","32.86","69.85917984661904","2.9921752601559244","470.46742834865574"
"B-1320","1,2,3-tribromobenzene","InChI=1S/C6H3Br3/c7-4-2-1-3-5(8)6(4)9/h1-3H","GMVJKSNPLYBFSO-UHFFFAOYSA-N","Brc1cccc(Br)c1Br","-5.0402","0.014900000000000357","2","G3","314.80199999999996","3.9741","49.542","9.0","0.0","0.0","3.0","0.0","48.0","1.0","0.0","0.0","1.0","0.0","79.03404593642105","3.2478347337367026","199.2929995478469"
"B-1322","altraric acid, d-","InChI=1S/C6H10O8/c7-1(3(9)5(11)12)2(8)4(10)6(13)14/h1-4,7-10H,(H,11,12)(H,13,14)/t1-,2+,3-,4-/m0/s1","DSLZVSRJTYRBFB-YCAKELIYSA-N","O[C@H]([C@H](O)[C@H](O)C(O)=O)[C@H](O)C(O)=O","0.1999","0.83865","2","G2","210.13799999999998","-3.4008","39.29879999999999","14.0","6.0","6.0","8.0","5.0","82.0","0.0","0.0","0.0","0.0","155.52","77.6524083130762","4.4503778597717565","201.87139393909504"
"B-1324","propanedioic acid, oxo-, diethyl ester","InChI=1S/C7H10O5/c1-3-11-6(9)5(8)7(10)12-4-2/h3-4H2,1-2H3","DBKKFIIYQGGHJO-UHFFFAOYSA-N","CCOC(=O)C(=O)C(=O)OCC","0.5117","0.0","1","G1","174.15199999999996","-0.31830000000000025","38.273","12.0","5.0","0.0","5.0","4.0","68.0","0.0","0.0","0.0","0.0","69.67","69.64056047335424","4.010084471791907","175.97341629985493"
"B-1325","2-nitro-1-butanol","InChI=1S/C4H9NO3/c1-2-4(3-6)5(7)8/h4,6H,2-3H2,1H3","MHIHRIPETCJEMQ-UHFFFAOYSA-N","CCC(CO)[N+]([O-])=O","-0.3436","0.0","1","G1","119.11999999999999","0.033999999999999975","28.15919999999999","8.0","3.0","1.0","4.0","3.0","48.0","0.0","0.0","0.0","0.0","63.37","47.28128684571519","3.5208600674451374","79.35260810785708"
"B-1326","2,4-dichloro-6-nitrophenol","InChI=1S/C6H3Cl2NO3/c7-3-1-4(8)6(10)5(2-3)9(11)12/h1-2,10H","LYPMXMBQPXPNIQ-UHFFFAOYSA-N","Oc1c(Cl)cc(Cl)cc1[N+]([O-])=O","-4.0876","0.0","1","G1","207.99999999999997","2.6071999999999997","44.7812","12.0","3.0","1.0","6.0","1.0","64.0","1.0","0.0","0.0","1.0","63.37","77.48514504795612","3.3738590108748694","339.8102371483468"
"B-1327","benzoic acid, 3-formyl-2-hydroxy-","InChI=1S/C8H6O4/c9-4-5-2-1-3-6(7(5)10)8(11)12/h1-4,10H,(H,11,12)","YOEUNKPREOJHBW-UHFFFAOYSA-N","OC(=O)c1cccc(C=O)c1O","-2.4423","0.0","1","G1","166.13199999999998","0.9028999999999998","40.45360000000001","12.0","3.0","2.0","4.0","2.0","62.0","1.0","0.0","0.0","1.0","74.6","68.07279905276974","3.3188809690716057","329.82978715700074"
"B-1328","2,4-dinitrobenzoic acid","InChI=1S/C7H4N2O6/c10-7(11)5-2-1-4(8(12)13)3-6(5)9(14)15/h1-3H,(H,10,11)","ZIIGSRYPZWDGBT-UHFFFAOYSA-N","OC(=O)c1ccc(cc1[N+]([O-])=O)[N+]([O-])=O","-1.0665","0.0","1","G1","212.11699999999996","1.2011999999999998","46.7101","15.0","5.0","1.0","8.0","3.0","78.0","1.0","0.0","0.0","1.0","123.58000000000001","82.05805253113294","3.3963489782409866","454.7936738455577"
"B-1329","1-methylanthracene","InChI=1S/C15H12/c1-11-5-4-8-14-9-12-6-2-3-7-13(12)10-15(11)14/h2-10H,1H3","KZNJSFHJUQDYHE-UHFFFAOYSA-N","Cc1cccc2cc3ccccc3cc12","-5.8541","0.0","1","G1","192.261","4.301420000000002","66.19100000000003","15.0","0.0","0.0","0.0","0.0","72.0","3.0","0.0","0.0","3.0","0.0","89.15967429736398","2.5325611743067453","635.6567221133737"
"B-1330","1(3h)-isobenzofuranone, 6-nitro-","InChI=1S/C8H5NO4/c10-8-7-3-6(9(11)12)2-1-5(7)4-13-8/h1-3H,4H2","RNWGZXAHUPFXLL-UHFFFAOYSA-N","[O-][N+](=O)c1ccc2COC(=O)c2c1","-2.6511","0.0","1","G1","179.13099999999997","1.2652","42.21590000000001","13.0","4.0","0.0","5.0","1.0","66.0","1.0","0.0","1.0","2.0","69.44","73.0834992468114","2.535184302783738","399.1305420920034"
"B-1333","1,2-benzenedimethanol","InChI=1S/C8H10O2/c9-5-7-3-1-2-4-8(7)6-10/h1-4,9-10H,5-6H2","XMUZQOKACOLCSS-UHFFFAOYSA-N","OCc1ccccc1CO","0.0569","0.0","1","G1","138.166","0.6712","38.287600000000005","10.0","2.0","2.0","2.0","2.0","54.0","1.0","0.0","0.0","1.0","40.46","59.749754852682194","2.964000093923802","185.1674941941729"
"B-1334","benzoic acid, 2-(hydroxymethyl)-","InChI=1S/C8H8O3/c9-5-6-3-1-2-4-7(6)8(10)11/h1-4,9H,5H2,(H,10,11)","MGMNPSAERQZUIM-UHFFFAOYSA-N","OCc1ccccc1C(O)=O","-1.5508","0.0","1","G1","152.14899999999997","0.8771","39.32410000000001","11.0","2.0","2.0","3.0","2.0","58.0","1.0","0.0","0.0","1.0","57.53","63.91127695272596","3.121219318886157","267.7946100817276"
"B-1335","2-ethylnitrobenzene","InChI=1S/C8H9NO2/c1-2-7-5-3-4-6-8(7)9(10)11/h3-6H,2H2,1H3","PXWYZLWEKCMTEZ-UHFFFAOYSA-N","CCc1ccccc1[N+]([O-])=O","-2.7993","0.0","1","G1","151.16499999999996","2.1572000000000005","42.474400000000024","11.0","2.0","0.0","3.0","2.0","58.0","1.0","0.0","0.0","1.0","43.14","64.81426307078998","3.121219318886157","270.54949758389114"
"B-1336","2-nitrobenzyl alcohol","InChI=1S/C7H7NO3/c9-5-6-3-1-2-4-7(6)8(10)11/h1-4,9H,5H2","BWRBVBFLFQKBPT-UHFFFAOYSA-N","OCc1ccccc1[N+]([O-])=O","-1.4861","0.0","1","G1","153.13699999999997","1.0871","39.01920000000002","11.0","3.0","1.0","4.0","2.0","58.0","1.0","0.0","0.0","1.0","63.37","63.243554708589386","3.121219318886157","272.1431256273244"
"B-1337","2-aminoanthracene","InChI=1S/C14H11N/c15-14-6-5-12-7-10-3-1-2-4-11(10)8-13(12)9-14/h1-9H,15H2","YCSBALJAGZKWFF-UHFFFAOYSA-N","Nc1ccc2cc3ccccc3cc2c1","-5.1722","0.0","1","G1","193.249","3.5752000000000015","65.86640000000001","15.0","1.0","1.0","1.0","0.0","72.0","3.0","0.0","0.0","3.0","26.02","88.1346228799801","2.474936442179002","640.957112138695"
"B-1338","nicotinic acid, ethyl ester","InChI=1S/C8H9NO2/c1-2-11-8(10)7-4-3-5-9-6-7/h3-6H,2H2,1H3","XBLVHTDFJBKJLG-UHFFFAOYSA-N","CCOC(=O)c1cccnc1","-0.4313","0.0","1","G1","151.16499999999996","1.2583","40.193500000000014","11.0","3.0","0.0","3.0","2.0","58.0","1.0","0.0","0.0","1.0","39.19","65.02094477318394","2.6930079504145","233.10719092921434"
"B-1339","2-chloroiodobenzene","InChI=1S/C6H4ClI/c7-5-3-1-2-4-6(5)8/h1-4H","MPEOPBCQHNWNFB-UHFFFAOYSA-N","Clc1ccccc1I","-3.54","0.0","1","G1","238.45499999999998","2.9446000000000003","44.16900000000001","8.0","0.0","0.0","2.0","0.0","42.0","1.0","0.0","0.0","1.0","0.0","66.99650746742228","3.134861511345448","164.63833891467198"
"B-1341","ethyl n-methylnitrosocarbamate","InChI=1S/C4H8N2O3/c1-3-9-4(7)6(2)5-8/h3H2,1-2H3","CAUBWLYZCDDYEF-UHFFFAOYSA-N","CCOC(=O)N(C)N=O","-0.5528","0.0","1","G1","132.119","0.7561","30.57999999999999","9.0","4.0","0.0","5.0","2.0","52.0","0.0","0.0","0.0","0.0","58.97","52.53384637523883","3.583388067911339","114.38037532843023"
"B-1342","1,2,4-tribromobenzene","InChI=1S/C6H3Br3/c7-4-1-2-5(8)6(9)3-4/h1-3H","FWAJPSIPOULHHH-UHFFFAOYSA-N","Brc1ccc(Br)c(Br)c1","-4.808","0.1549999999999998","2","G3","314.80199999999996","3.974100000000001","49.54200000000001","9.0","0.0","0.0","3.0","0.0","48.0","1.0","0.0","0.0","1.0","0.0","79.03404593642107","3.1716780304409156","219.54299954784685"
"B-1343","dl-norleucine","InChI=1S/C6H13NO2/c1-2-3-4-5(7)6(8)9/h5H,2-4,7H2,1H3,(H,8,9)","LRQKBLKVPFOOQJ-UHFFFAOYSA-N","CCCCC(N)C(O)=O","-1.0453","0.007850000000000024","2","G3","131.17499999999998","0.5884999999999998","35.13619999999998","9.0","2.0","2.0","3.0","4.0","54.0","0.0","0.0","0.0","0.0","63.32","54.859608149065075","3.2659073992264416","93.05865002596164"
"B-1344","3-chloropentane","InChI=1S/C5H11Cl/c1-3-5(6)4-2/h5H,3-4H2,1-2H3","CXQSCYIVCSCSES-UHFFFAOYSA-N","CCC(Cl)CC","-2.6307","0.0","1","G1","106.59599999999999","2.4138","30.222999999999985","6.0","0.0","0.0","1.0","2.0","38.0","0.0","0.0","0.0","0.0","0.0","44.502285712297656","2.7541847860376616","23.11941547876375"
"B-1345","1-penten-3-ol","InChI=1S/C5H10O/c1-3-5(6)4-2/h3,5-6H,1,4H2,2H3","VHVMXWZXFBOANQ-UHFFFAOYSA-N","CCC(O)C=C","0.0193","0.0","1","G1","86.134","0.9433","26.494799999999987","6.0","1.0","1.0","1.0","2.0","36.0","0.0","0.0","0.0","0.0","20.23","38.30365020542773","2.964900494759057","41.20310343869659"
"B-1346","pyrrolidone","InChI=1S/C4H7NO/c6-4-2-1-3-5-4/h1-3H2,(H,5,6)","HNJBEVLQSNELDL-UHFFFAOYSA-N","O=C1CCCN1","1.07","0.99998008955","2","G2","85.10600000000001","-0.10360000000000008","22.243699999999997","6.0","1.0","1.0","2.0","0.0","34.0","0.0","1.0","1.0","1.0","29.1","36.53963050114196","2.3673518510178746","61.94833690207419"
"B-1348","propylpropanedioic acid","InChI=1S/C6H10O4/c1-2-3-4(5(7)8)6(9)10/h4H,2-3H2,1H3,(H,7,8)(H,9,10)","VQDJODAWOFNASI-UHFFFAOYSA-N","CCCC(C(O)=O)C(O)=O","0.6803","0.0","1","G1","146.142","0.5719","33.66959999999999","10.0","2.0","2.0","4.0","4.0","58.0","0.0","0.0","0.0","0.0","74.6","58.47547330429214","3.981406257698735","126.68324254705824"
"B-1349","1,3-benzenediol, 4,6-dinitro-","InChI=1S/C6H4N2O6/c9-5-2-6(10)4(8(13)14)1-3(5)7(11)12/h1-2,9-10H","MBXIRNHACKAGPA-UHFFFAOYSA-N","Oc1cc(O)c(cc1[N+]([O-])=O)[N+]([O-])=O","-3.4086","0.0","1","G1","200.10599999999997","0.9142000000000001","43.08040000000001","14.0","6.0","2.0","8.0","2.0","74.0","1.0","0.0","0.0","1.0","126.74000000000001","76.32582206888858","3.4178886149330863","379.7779106905112"
"B-1350","benzoic acid, 5-formyl-2-hydroxy-","InChI=1S/C8H6O4/c9-4-5-1-2-7(10)6(3-5)8(11)12/h1-4,10H,(H,11,12)","UTCFOFWMEPQCSR-UHFFFAOYSA-N","OC(=O)c1cc(C=O)ccc1O","-2.6354","0.0","1","G1","166.13199999999998","0.9028999999999998","40.45360000000001","12.0","3.0","2.0","4.0","2.0","62.0","1.0","0.0","0.0","1.0","74.6","68.07279905276974","3.254192991842129","329.82978715700074"
"B-1351","pentylmalonic acid","InChI=1S/C8H14O4/c1-2-3-4-5-6(7(9)10)8(11)12/h6H,2-5H2,1H3,(H,9,10)(H,11,12)","LAWHHRXCBUNWFI-UHFFFAOYSA-N","CCCCCC(C(O)=O)C(O)=O","0.5921","0.0","1","G1","174.19599999999997","1.3521","42.9036","12.0","2.0","2.0","4.0","6.0","70.0","0.0","0.0","0.0","0.0","74.6","71.20535753308536","3.8048997047333883","150.44079551951015"
"B-1352","2-methyl-3-hexanol","InChI=1S/C7H16O/c1-4-5-7(8)6(2)3/h6-8H,4-5H2,1-3H3","RGRUUTLDBCWYBL-UHFFFAOYSA-N","CCCC(O)C(C)C","-1.3093","0.005350000000000077","2","G3","116.20399999999998","1.8034","35.75279999999999","8.0","1.0","1.0","1.0","3.0","50.0","0.0","0.0","0.0","0.0","20.23","51.723137466405205","3.170819357347939","50.34851554559677"
"B-1357","benzenesulfonic acid, 3-(dimethylamino)-","InChI=1S/C8H11NO3S/c1-9(2)7-4-3-5-8(6-7)13(10,11)12/h3-6H,1-2H3,(H,10,11,12)","SOKSKPNEBIDBOU-UHFFFAOYSA-N","CN(C)c1cccc(c1)[S](O)(=O)=O","0.2983","0.0","1","G1","201.24699999999996","0.9993000000000001","50.583600000000025","13.0","3.0","1.0","5.0","2.0","72.0","1.0","0.0","0.0","1.0","57.61","77.54975702853417","3.212578736587859","397.6050956283562"
"B-1358","2-furancarboxylic acid, 5-chloro-","InChI=1S/C5H3ClO3/c6-4-2-1-3(9-4)5(7)8/h1-2H,(H,7,8)/p-1","NNTBDUTXMIMRKK-UHFFFAOYSA-M","[O-]C(=O)c1oc(Cl)cc1","-1.7188","0.0","1","G1","145.52100000000002","0.29650000000000004","28.048499999999997","9.0","3.0","0.0","4.0","1.0","48.0","1.0","0.0","0.0","1.0","53.269999999999996","55.849696577091855","2.977648531786832","227.8619085587166"
"B-1359","helicin","InChI=1S/C13H16O7/c14-5-7-3-1-2-4-8(7)19-13-12(18)11(17)10(16)9(6-15)20-13/h1-5,9-13,15-18H,6H2/t9-,10-,11+,12-,13-/m1/s1","BGOFCVIGEYGEOF-UJPOAAIJSA-N","OC[C@H]1O[C@@H](Oc2ccccc2C=O)[C@H](O)[C@@H](O)[C@@H]1O","-1.1985","0.0","1","G1","284.264","-1.3222000000000005","66.22470000000003","20.0","7.0","4.0","7.0","4.0","110.0","1.0","1.0","1.0","2.0","116.45","114.54571433458557","2.1705786914097764","461.7878229798333"
"B-1360","3,4-dimethylbenzoic acid","InChI=1S/C9H10O2/c1-6-3-4-8(9(10)11)5-7(6)2/h3-5H,1-2H3,(H,10,11)/p-1","OPVAJFQBSDUNQA-UHFFFAOYSA-M","Cc1ccc(cc1C)C([O-])=O","-3.0653","0.0","1","G1","149.16899999999998","0.6669399999999999","40.24650000000001","11.0","2.0","0.0","2.0","1.0","58.0","1.0","0.0","0.0","1.0","40.129999999999995","65.48198531492656","3.1515496683060507","289.61424921780844"
"B-1361","m-nitrobenzyl alcohol","InChI=1S/C7H7NO3/c9-5-6-2-1-3-7(4-6)8(10)11/h1-4,9H,5H2","CWNPOQFCIIFQDM-UHFFFAOYSA-N","OCc1cccc(c1)[N+]([O-])=O","-2.4142","0.0","1","G1","153.13699999999997","1.0871","39.01920000000002","11.0","3.0","1.0","4.0","2.0","58.0","1.0","0.0","0.0","1.0","63.37","63.243554708589386","3.0058892189147386","272.1431256273244"
"B-1362","p-cyanobenzoic acid","InChI=1S/C8H5NO2/c9-5-6-1-3-7(4-2-6)8(10)11/h1-4H,(H,10,11)","ADCUEPOHPCPMCE-UHFFFAOYSA-N","OC(=O)c1ccc(cc1)C#N","-2.0885","0.0807500000000001","2","G3","147.13299999999998","1.2564799999999998","38.11630000000001","11.0","2.0","1.0","3.0","1.0","54.0","1.0","0.0","0.0","1.0","61.089999999999996","63.50962288199867","3.0316389681074445","307.8590974511937"
"B-1363","p-nitrobenzyl alcohol","InChI=1S/C7H7NO3/c9-5-6-1-3-7(4-2-6)8(10)11/h1-4,9H,5H2","JKTYGPATCNUWKN-UHFFFAOYSA-N","OCc1ccc(cc1)[N+]([O-])=O","-1.8841","0.0","1","G1","153.13699999999997","1.0871","39.01920000000002","11.0","3.0","1.0","4.0","2.0","58.0","1.0","0.0","0.0","1.0","63.37","63.243554708589386","2.9138015626758045","254.89312562732442"
"B-1364","4-dimethylamino benzoic acid","InChI=1S/C9H11NO2/c1-10(2)8-5-3-7(4-6-8)9(11)12/h3-6H,1-2H3,(H,11,12)","YDIYEOMDOWUDTJ-UHFFFAOYSA-N","CN(C)c1ccc(cc1)C(O)=O","-3.3979","0.0","1","G1","165.19199999999995","1.4507999999999999","47.72830000000002","12.0","2.0","1.0","3.0","2.0","64.0","1.0","0.0","0.0","1.0","40.54","71.24181898512994","2.9291455995407594","277.08493892361554"
"B-1365","m-hydroxybenzyl alcohol","InChI=1S/C7H8O2/c8-5-6-2-1-3-7(9)4-6/h1-4,8-9H,5H2","OKVJCVWFVRATSG-UHFFFAOYSA-N","OCc1cccc(O)c1","-0.2678","0.0","1","G1","124.13899999999997","0.8844999999999998","34.029599999999995","9.0","2.0","2.0","2.0","1.0","48.0","1.0","0.0","0.0","1.0","40.46","53.384812738285596","2.9368661023365914","195.86256853719752"
"B-1366","acetamide, 2-cyano-n-phenyl-","InChI=1S/C9H8N2O/c10-7-6-9(12)11-8-4-2-1-3-5-8/h1-5H,6H2,(H,11,12)","XCTQPMCULSZKLT-UHFFFAOYSA-N","O=C(CC#N)Nc1ccccc1","-2.7275","0.0","1","G1","160.17600000000002","1.5387799999999998","45.30170000000002","12.0","2.0","1.0","3.0","2.0","60.0","1.0","0.0","0.0","1.0","52.89","70.6301934278073","2.5418299611801958","300.0546159437918"
"B-1367","m-hydroxyphenylacetic acid","InChI=1S/C8H8O3/c9-7-3-1-2-6(4-7)5-8(10)11/h1-4,9H,5H2,(H,10,11)","FVMDYYGIDFPZAX-UHFFFAOYSA-N","OC(=O)Cc1cccc(O)c1","0.8177","0.0","1","G1","152.149","1.0193","39.44660000000002","11.0","2.0","2.0","3.0","2.0","58.0","1.0","0.0","0.0","1.0","57.53","63.91127695272596","2.7909314514807626","267.7946100817276"
"B-1368","1-pentanamine, n,n-dipentyl-","InChI=1S/C15H33N/c1-4-7-10-13-16(14-11-8-5-2)15-12-9-6-3/h4-15H2,1-3H3","OOHAUGDGCWURIT-UHFFFAOYSA-N","CCCCCN(CCCCC)CCCCC","-4.0326","0.0","1","G1","227.43599999999995","4.859000000000005","75.01500000000007","16.0","1.0","0.0","1.0","12.0","98.0","0.0","0.0","0.0","0.0","3.24","103.60827429958543","3.57988974451701","98.82892142331043"
"B-1369","4-methylphenylisothiocyanate","InChI=1S/C8H7NS/c1-7-2-4-8(5-3-7)9-6-10/h2-5H,1H3","ABQKHKWXTUVKGF-UHFFFAOYSA-N","Cc1ccc(cc1)N=C=S","-4.7213","0.0","1","G1","149.218","2.7293200000000004","45.86500000000002","10.0","2.0","0.0","2.0","1.0","50.0","1.0","0.0","0.0","1.0","12.36","65.41539008135518","2.9960277321018163","257.0910097152755"