"ID","Name","InChI","InChIKey","SMILES","Solubility","SD","Ocurrences","Group","MolWt","MolLogP","MolMR","HeavyAtomCount","NumHAcceptors","NumHDonors","NumHeteroatoms","NumRotatableBonds","NumValenceElectrons","NumAromaticRings","NumSaturatedRings","NumAliphaticRings","RingCount","TPSA","LabuteASA","BalabanJ","BertzCT"
"B-939","ethisterone","InChI=1S/C21H28O2/c1-4-21(23)12-9-18-16-6-5-14-13-15(22)7-10-19(14,2)17(16)8-11-20(18,21)3/h1,13,16-18,23H,5-12H2,2-3H3/t16-,17+,18+,19+,20+,21+/m1/s1","CHNXZKVNWQUJIB-CEGNMAFCSA-N","C[C@]12CCC(=O)C=C1CC[C@@H]3[C@@H]2CC[C@@]4(C)[C@H]3CC[C@@]4(O)C#C","-5.6576","0.1973524648999998","2","G3","312.45300000000003","3.8826000000000027","90.49280000000005","23.0","2.0","1.0","2.0","0.0","124.0","0.0","3.0","4.0","4.0","37.3","139.2801469135596","1.7024099249747309","626.2430525943431"
"B-940","lithocholic acid","InChI=1S/C24H40O3/c1-15(4-9-22(26)27)19-7-8-20-18-6-5-16-14-17(25)10-12-23(16,2)21(18)11-13-24(19,20)3/h15-21,25H,4-14H2,1-3H3,(H,26,27)/t15-,16-,17-,18+,19-,20+,21+,23+,24-/m1/s1","SMEROWZSTRWXGI-HVATVPOCSA-N","C[C@H](CCC(O)=O)[C@H]1CC[C@H]2[C@@H]3CC[C@@H]4C[C@H](O)CC[C@]4(C)[C@H]3CC[C@]12C","-6.0","0.0","1","G1","376.5810000000002","5.507100000000006","107.25760000000008","27.0","2.0","2.0","3.0","4.0","154.0","0.0","4.0","4.0","4.0","57.53","164.8595846492704","1.50972179567481","573.9735940164148"
"B-941","nandrolone","InChI=1S/C18H26O2/c1-18-9-8-14-13-5-3-12(19)10-11(13)2-4-15(14)16(18)6-7-17(18)20/h10,13-17,20H,2-9H2,1H3/t13-,14+,15+,16-,17-,18-/m0/s1","NPAGDVCDWIYMMC-IZPLOLCNSA-N","C[C@]12CC[C@H]3[C@@H](CCC4=CC(=O)CC[C@H]34)[C@@H]1CC[C@@H]2O","-1.9484","0.0","1","G1","274.40399999999994","3.4891000000000028","78.09980000000004","20.0","2.0","1.0","2.0","0.0","110.0","0.0","3.0","4.0","4.0","37.3","121.1860951785105","1.6303925026216401","466.0386807761662"
"B-942","azuleno[6,5-b]furan-2,6-(3h,4h)-dione, 3a,7,7a,8","InChI=1S/C15H20O4/c1-6-4-11-13(8(3)15(18)19-11)14(17)12-7(2)10(16)5-9(6)12/h6,8-9,11,13-14,17H,4-5H2,1-3H3/t6-,8-,9+,11+,13+,14+/m0/s1","BFWXQSLJSDLIAA-GSGOXJSYSA-N","C[C@H]1C[C@H]2OC(=O)[C@@H](C)[C@H]2[C@H](O)C3=C(C)C(=O)C[C@H]13","-1.945","0.0","1","G1","264.32099999999997","1.4703","68.13580000000003","19.0","4.0","1.0","4.0","0.0","104.0","0.0","2.0","3.0","3.0","63.6","112.37216731840054","2.0519233414309705","478.5372462613826"
"B-944","iodamide","InChI=1S/C12H11I3N2O4/c1-4(18)16-3-6-8(13)7(12(20)21)10(15)11(9(6)14)17-5(2)19/h3H2,1-2H3,(H,16,18)(H,17,19)(H,20,21)","VVDGWALACJEJKG-UHFFFAOYSA-N","CC(=O)NCc1c(I)c(NC(C)=O)c(I)c(C(O)=O)c1I","-2.3208","0.0","1","G1","627.9420000000002","2.793100000000001","103.37670000000003","21.0","3.0","3.0","9.0","4.0","114.0","1.0","0.0","0.0","1.0","95.5","161.78509458855092","3.5445652835027213","631.6639332347906"
"B-945","dl-isoleucine","InChI=1S/C6H13NO2/c1-3-4(2)5(7)6(8)9/h4-5H,3,7H2,1-2H3,(H,8,9)/t4-,5+/m0/s1","AGPKZVBTJJNPAG-CRCLSJGQSA-N","CC[C@H](C)[C@@H](N)C(O)=O","-0.7875","0.0","1","G1","131.17499999999998","0.44439999999999996","35.06619999999998","9.0","2.0","2.0","3.0","3.0","54.0","0.0","0.0","0.0","0.0","63.32","54.859608149065075","3.7161367711827205","103.23098268032228"
"B-946","benzeneacetic acid, 2,5-dihydroxy-","InChI=1S/C8H8O4/c9-6-1-2-7(10)5(3-6)4-8(11)12/h1-3,9-10H,4H2,(H,11,12)","IGMNYECMUMZDDF-UHFFFAOYSA-N","OC(=O)Cc1cc(O)ccc1O","0.7037","0.0","1","G1","168.148","0.7248999999999999","41.11140000000002","12.0","3.0","3.0","4.0","2.0","64.0","1.0","0.0","0.0","1.0","77.76","68.70551070492198","2.9694149923977777","305.92621196610224"
"B-947","1h-purin-2-amine","InChI=1S/C5H5N5/c6-5-7-1-3-4(10-5)9-2-8-3/h1-2H,(H3,6,7,8,9,10)","MWBWWFOAEOYUST-UHFFFAOYSA-N","Nc1ncc2[nH]cnc2n1","-1.21","0.0","1","G1","135.13","-0.06490000000000012","36.0961","10.0","4.0","2.0","5.0","0.0","50.0","2.0","0.0","0.0","2.0","80.48","56.32106271209873","2.860781632079713","351.5657969317911"
"B-948","3-furanol, tetrahydro-","InChI=1S/C4H8O2/c5-4-1-2-6-3-4/h4-5H,1-3H2","XDPCNPCKDGQBAN-UHFFFAOYSA-N","OC1CCOC1","1.055","0.0","1","G1","88.106","-0.23239999999999994","21.442799999999995","6.0","2.0","1.0","2.0","0.0","36.0","0.0","1.0","1.0","1.0","29.46","36.73602519919304","2.184105569636068","38.8127439131334"
"B-949","benzoic acid, 4-fluoro-3-nitro-","InChI=1S/C7H4FNO4/c8-5-2-1-4(7(10)11)3-6(5)9(12)13/h1-3H,(H,10,11)","BOJWTAQWPVBIPG-UHFFFAOYSA-N","OC(=O)c1ccc(F)c(c1)[N+]([O-])=O","-1.5809","0.0","1","G1","185.10999999999999","1.4320999999999997","40.01370000000001","13.0","3.0","1.0","6.0","2.0","68.0","1.0","0.0","0.0","1.0","80.44","71.57061221155939","3.267052212361691","376.7553335743196"
"B-950","m-fluorobenzyl chloride","InChI=1S/C7H6ClF/c8-5-6-2-1-3-7(9)4-6/h1-4H,5H2","XBDXMDVEZLOGMC-UHFFFAOYSA-N","Fc1cccc(CCl)c1","-2.5436","0.0","1","G1","144.57600000000002","2.5645000000000007","35.95700000000001","9.0","0.0","0.0","2.0","1.0","48.0","1.0","0.0","0.0","1.0","0.0","58.26514686370148","2.9368661023365914","197.86256853719752"
"B-951","2-propylpiperidine","InChI=1S/C8H17N/c1-2-5-8-6-3-4-7-9-8/h8-9H,2-7H2,1H3/t8-/m0/s1","NDNUANOUGZGEPO-QMMMGPOBSA-N","CCC[C@H]1CCCCN1","-0.8493","0.0","1","G1","127.23100000000001","1.9286","40.54970000000001","9.0","1.0","1.0","1.0","2.0","54.0","0.0","1.0","1.0","1.0","12.03","57.83787685868463","2.0778607554610558","62.2129994085646"
"B-952","ethane, 1,1-difluoro-2-methoxy-","InChI=1S/C3H6F2O/c1-6-2-3(4)5/h3H,2H2,1H3","CRGZRXUKXVTRNO-UHFFFAOYSA-N","COCC(F)F","-0.2836","0.0","1","G1","96.07600000000001","0.8979000000000001","17.88","6.0","1.0","0.0","3.0","2.0","38.0","0.0","0.0","0.0","0.0","9.23","34.913751291982116","2.6272148478988635","29.974168451037094"
"B-953","2-cyanoguanidine","InChI=1S/C2H4N4/c3-1-6-2(4)5/h(H4,4,5,6)","QGBSISYHAICWAH-UHFFFAOYSA-N","NC(N)=NC#N","-0.3087","0.0","1","G1","84.082","-1.2591199999999998","21.422800000000006","6.0","2.0","2.0","4.0","0.0","32.0","0.0","0.0","0.0","0.0","88.19","35.07187670358043","3.5072228538686434","92.60593781761291"
"B-954","3-aminopyridine","InChI=1S/C5H6N2/c6-5-2-1-3-7-4-5/h1-4H,6H2","CUYKNJBYIJFRCU-UHFFFAOYSA-N","Nc1cccnc1","1.0263","0.0","1","G1","94.117","0.6638000000000001","28.6494","7.0","2.0","1.0","2.0","0.0","36.0","1.0","0.0","0.0","1.0","38.91","41.990941797456195","3.0214653097240864","136.00750422530467"
"B-955","n-(aminocarbonyl)glycine","InChI=1S/C3H6N2O3/c4-3(8)5-1-2(6)7/h1H2,(H,6,7)(H3,4,5,8)","KZVRXPPUJQRGFN-UHFFFAOYSA-N","NC(=O)NCC(O)=O","-0.5809","0.0","1","G1","118.09199999999998","-1.2607","25.2219","8.0","2.0","3.0","5.0","2.0","46.0","0.0","0.0","0.0","0.0","92.42000000000002","45.47616608952706","3.1818458670936187","97.09616281328597"
"B-956",".beta.-alanine, n-(aminocarbonyl)-","InChI=1S/C4H8N2O3/c5-4(9)6-2-1-3(7)8/h1-2H2,(H,7,8)(H3,5,6,9)","JSJWCHRYRHKBBW-UHFFFAOYSA-N","NC(=O)NCCC(O)=O","-0.8014","0.0","1","G1","132.119","-0.8706","29.8389","9.0","2.0","3.0","5.0","3.0","52.0","0.0","0.0","0.0","0.0","92.42000000000002","51.84110820392366","3.1028259423155773","108.9811553790729"
"B-957","d-borneol","InChI=1S/C10H18O/c1-9(2)7-4-5-10(9,3)8(11)6-7/h7-8,11H,4-6H2,1-3H3/t7?,8-,10?/m0/s1","DTGKSKDOIYIVQL-ZCUBBSJVSA-N","CC1(C)C2CCC1(C)[C@@H](O)C2","-2.319","0.0","1","G1","154.253","2.1935000000000002","45.23580000000002","11.0","1.0","1.0","1.0","0.0","64.0","0.0","2.0","2.0","2.0","20.23","68.80630150253657","2.396254979141823","185.3117986128446"
"B-958","(1r,4r)-(+)-camphor","InChI=1S/C10H16O/c1-9(2)7-4-5-10(9,3)8(11)6-7/h7H,4-6H2,1-3H3/t7-,10-/m0/s1","DSSYKIVIOFKYAU-XVKPBYJWSA-N","CC1(C)[C@H]2CC[C@@]1(C)C(=O)C2","-3.1825","0.0","1","G1","152.237","2.401700000000001","44.23600000000002","11.0","1.0","0.0","1.0","0.0","62.0","0.0","2.0","2.0","2.0","17.07","68.17358985038433","2.4741517243797513","216.91266689075218"
"B-959","quinamine","InChI=1S/C19H24N2O2/c1-2-13-12-21-9-7-14(13)11-17(21)19-18(22,8-10-23-19)15-5-3-4-6-16(15)20-19/h2-6,13-14,17,20,22H,1,7-12H2/t13-,14-,17-,18+,19-/m0/s1","ALNKTVLUDWIWIH-HLQCWHFUSA-N","O[C@@]12CCO[C@@]1(Nc3ccccc23)[C@@H]4C[C@@H]5CCN4C[C@@H]5C=C","-2.6706","0.0","1","G1","312.41300000000007","2.3127000000000004","89.03350000000005","23.0","4.0","2.0","4.0","2.0","122.0","1.0","4.0","5.0","6.0","44.730000000000004","136.680197795866","1.570266042750253","662.5246273909811"
"B-960","aspidospermine","InChI=1S/C22H30N2O2/c1-4-21-10-6-13-23-14-12-22(20(21)23)16-7-5-8-17(26-3)19(16)24(15(2)25)18(22)9-11-21/h5,7-8,18,20H,4,6,9-14H2,1-3H3/t18-,20-,21-,22-/m1/s1","ARQOGCYMPUOVHK-ZHHKINOHSA-N","CC[C@@]12CCCN3CC[C@@]4([C@@H](CC1)N(C(C)=O)c5c(OC)cccc45)[C@@H]23","-1.3269","0.0","1","G1","354.4940000000001","3.7264000000000026","102.79000000000006","26.0","3.0","0.0","4.0","2.0","140.0","1.0","3.0","4.0","5.0","32.78","156.04188700568315","1.7705855206035035","762.5091846085681"
"B-961","flurenol","InChI=1S/C14H10O3/c15-13(16)14(17)11-7-3-1-5-9(11)10-6-2-4-8-12(10)14/h1-8,17H,(H,15,16)","GXAMYUGOODKVRM-UHFFFAOYSA-N","OC(=O)[C@@]1(O)c2ccccc2c3ccccc13","-1.9657","0.0","1","G1","226.231","1.9875000000000003","62.512600000000035","17.0","2.0","2.0","3.0","1.0","84.0","2.0","0.0","1.0","3.0","57.53","97.96254000526078","2.429981977237712","570.869316754306"
"B-962","propoxyphene","InChI=1S/C22H29NO2/c1-5-21(24)25-22(18(2)17-23(3)4,20-14-10-7-11-15-20)16-19-12-8-6-9-13-19/h6-15,18H,5,16-17H2,1-4H3/t18-,22+/m1/s1","XLMALTXPSGQGBX-GCJKJVERSA-N","CCC(=O)O[C@@](Cc1ccccc1)([C@H](C)CN(C)C)c2ccccc2","-5.0097","0.0","1","G1","339.47900000000004","4.275500000000004","102.36700000000006","25.0","3.0","0.0","3.0","8.0","134.0","2.0","0.0","0.0","2.0","29.54","151.17281946928108","2.526296518136546","654.2421416714783"
"B-964","1,1'-sulfonylbis(2-chloroethane)","InChI=1S/C4H8Cl2O2S/c5-1-3-9(7,8)4-2-6/h1-4H2","LUYAMNYBNTVQJG-UHFFFAOYSA-N","ClCC[S](=O)(=O)CCCl","-1.5031","0.0","1","G1","191.07899999999998","0.8788","40.093800000000016","9.0","2.0","0.0","5.0","4.0","56.0","0.0","0.0","0.0","0.0","34.14","65.06600820656931","3.734562819666556","139.95057052383706"
"B-965","methylguanidine","InChI=1S/C2H7N3/c1-5-2(3)4/h1H3,(H4,3,4,5)","CHJJGSNFBQVOTG-UHFFFAOYSA-N","CN=C(N)N","-1.6135","0.0","1","G1","73.099","-1.1103999999999996","21.733800000000006","5.0","1.0","2.0","3.0","0.0","30.0","0.0","0.0","0.0","0.0","64.39999999999999","30.67929702211171","3.1431973062780685","42.854752972273346"
"B-966","thiazolsulfone","InChI=1S/C9H9N3O2S2/c10-6-1-3-7(4-2-6)16(13,14)8-5-12-9(11)15-8/h1-5H,10H2,(H2,11,12)","KVEZIRCKNOTGKY-UHFFFAOYSA-N","Nc1ccc(cc1)[S](=O)(=O)c2sc(N)nc2","-2.805","0.0","1","G1","255.32399999999998","1.1403","62.832600000000006","16.0","6.0","2.0","7.0","2.0","84.0","2.0","0.0","0.0","2.0","99.07000000000001","96.653688352731","2.509149455148257","601.9392649922655"
"B-968","cyclobutaneacetic acid, 3-acetyl-2,2-dimethyl-","InChI=1S/C10H16O3/c1-6(11)8-4-7(5-9(12)13)10(8,2)3/h7-8H,4-5H2,1-3H3,(H,12,13)","SIZDUQQDBXJXLQ-UHFFFAOYSA-N","CC(=O)C1CC(CC(O)=O)C1(C)C","-0.5752","0.0","1","G1","184.23499999999999","1.7124","48.31180000000002","13.0","2.0","1.0","3.0","3.0","74.0","0.0","1.0","1.0","1.0","54.37","78.13517685615331","2.585646200478558","242.55441322813397"
"B-969","chenodeoxycholic acid","InChI=1S/C24H40O4/c1-14(4-7-21(27)28)17-5-6-18-22-19(9-11-24(17,18)3)23(2)10-8-16(25)12-15(23)13-20(22)26/h14-20,22,25-26H,4-13H2,1-3H3,(H,27,28)/t14-,15+,16-,17-,18+,19+,20-,22+,23+,24-/m1/s1","RUDATBOHQWOJDD-BSWAIDMHSA-N","C[C@H](CCC(O)=O)[C@H]1CC[C@H]2[C@@H]3[C@H](O)C[C@@H]4C[C@H](O)CC[C@]4(C)[C@H]3CC[C@]12C","-3.6402","0.0","1","G1","392.5800000000002","4.477900000000004","108.64740000000008","28.0","3.0","3.0","4.0","4.0","160.0","0.0","4.0","4.0","4.0","77.76","169.65381840146642","1.5548220176091474","605.412568486979"
"B-970","equilin","InChI=1S/C18H20O2/c1-18-9-8-14-13-5-3-12(19)10-11(13)2-4-15(14)16(18)6-7-17(18)20/h3-5,10,14,16,19H,2,6-9H2,1H3/t14-,16+,18+/m1/s1","WKRLQDKEXYKHJB-HFTRVMKXSA-N","C[C@]12CC[C@H]3C(=CCc4cc(O)ccc34)[C@@H]1CCC2=O","-5.2795","0.0","1","G1","268.356","3.7375000000000025","77.70680000000003","20.0","2.0","1.0","2.0","0.0","104.0","1.0","2.0","3.0","4.0","37.3","119.05936785172413","1.774238222952189","628.3054350603156"
"B-971","hematein","InChI=1S/C16H12O6/c17-10-2-1-8-13-9-4-12(19)11(18)3-7(9)5-16(13,21)6-22-15(8)14(10)20/h1-4,17,19-21H,5-6H2","HLUCICHZHWJHLL-UHFFFAOYSA-N","Oc1ccc2c(OCC3(O)CC4=CC(=O)C(=CC4=C23)O)c1O","-2.6994","0.0","1","G1","300.266","1.3296","75.5552","22.0","6.0","4.0","6.0","0.0","112.0","1.0","0.0","3.0","4.0","107.22","124.44652404465732","2.02947500695494","829.2829404511175"
"B-972","glycocholic acid","InChI=1S/C26H43NO6/c1-14(4-7-22(31)27-13-23(32)33)17-5-6-18-24-19(12-21(30)26(17,18)3)25(2)9-8-16(28)10-15(25)11-20(24)29/h14-21,24,28-30H,4-13H2,1-3H3,(H,27,31)(H,32,33)/t14-,15+,16-,17-,18+,19+,20-,21+,24+,25+,26-/m1/s1","RFDAIACWWDREDC-FRVQLJSFSA-N","C[C@H](CCC(=O)NCC(O)=O)[C@H]1CC[C@H]2[C@@H]3[C@H](O)C[C@@H]4C[C@H](O)CC[C@]4(C)[C@H]3C[C@H](O)[C@]12C","-5.1495","0.0","1","G1","465.6310000000003","2.564899999999999","123.04690000000006","33.0","5.0","5.0","7.0","6.0","188.0","0.0","4.0","4.0","4.0","127.09000000000002","196.88932066610744","1.4868660433893965","759.0641407508059"
"B-973","picropodophyllin","InChI=1S/C22H22O8/c1-25-16-4-10(5-17(26-2)21(16)27-3)18-11-6-14-15(30-9-29-14)7-12(11)20(23)13-8-28-22(24)19(13)18/h4-7,13,18-20,23H,8-9H2,1-3H3/t13-,18+,19+,20-/m0/s1","YJGVMLPVUAXIQN-HAEOHBJNSA-N","COc1cc(cc(OC)c1OC)[C@H]2[C@H]3[C@H](COC3=O)[C@@H](O)c4cc5OCOc5cc24","-3.6174","0.0","1","G1","414.4100000000002","2.4092000000000002","103.40480000000004","30.0","8.0","1.0","8.0","4.0","158.0","2.0","1.0","3.0","5.0","92.68","172.7574522382205","1.7415109606075292","991.4325050884056"
"B-974","safranine t","InChI=1S/C20H18N4.ClH/c1-12-10-17-19(11-16(12)22)24(14-6-4-3-5-7-14)18-9-8-15(21)13(2)20(18)23-17;/h3-11,22H,21H2,1-2H3;1H","QRYAEWIQIBAZOJ-UHFFFAOYSA-N","[Cl-].Cc1cc2nc3c(C)c(N)ccc3[n+](c4ccccc4)c2cc1N","-0.8462","0.0","1","G1","350.85300000000007","0.44994000000000145","99.07980000000002","25.0","3.0","2.0","5.0","1.0","126.0","4.0","0.0","0.0","4.0","68.81","152.06385271288784","1.82249878500084e-06","1087.7380792410195"
"B-976","cholanthrene","InChI=1S/C20H14/c1-2-7-16-13(4-1)8-10-17-18-11-9-14-5-3-6-15(20(14)18)12-19(16)17/h1-8,10,12H,9,11H2","KVFJBIQWENJTDM-UHFFFAOYSA-N","C1Cc2c3ccc4ccccc4c3cc5cccc1c25","-7.8613","0.005650000000000155","2","G3","254.33199999999997","5.244800000000003","86.36800000000004","20.0","0.0","0.0","0.0","0.0","94.0","4.0","0.0","1.0","5.0","0.0","117.20044978996657","2.102237440474606","992.7859948151674"
"B-978","tetryl","InChI=1S/C7H5N5O8/c1-8(12(19)20)7-5(10(15)16)2-4(9(13)14)3-6(7)11(17)18/h2-3H,1H3","AGUIVNYEYSCPNI-UHFFFAOYSA-N","CN(c1c(cc(cc1[N+]([O-])=O)[N+]([O-])=O)[N+]([O-])=O)[N+]([O-])=O","-3.5889","0.0","1","G1","287.144","1.0391","61.802599999999984","20.0","8.0","0.0","13.0","5.0","106.0","1.0","0.0","0.0","1.0","175.79999999999998","108.1382178143311","3.769454572555376","592.636916840488"
"B-979","aucubin","InChI=1S/C15H22O9/c16-4-6-3-8(18)7-1-2-22-14(10(6)7)24-15-13(21)12(20)11(19)9(5-17)23-15/h1-3,7-21H,4-5H2/t7-,8+,9+,10+,11+,12-,13+,14-,15-/m0/s1","RJWJHRPNHPHBRN-FKVJWERZSA-N","OC[C@H]1O[C@@H](O[C@@H]2OC=C[C@H]3[C@H](O)C=C(CO)[C@@H]23)[C@H](O)[C@@H](O)[C@@H]1O","0.0119","0.0","1","G1","346.33200000000005","-2.8014999999999985","77.02080000000001","24.0","9.0","6.0","9.0","4.0","136.0","0.0","1.0","3.0","3.0","149.07","137.5577793061226","1.7493468910990027","505.1731947398697"
"B-981","2,4,6-trimethylbenzoic acid","InChI=1S/C10H12O2/c1-6-4-7(2)9(10(11)12)8(3)5-6/h4-5H,1-3H3,(H,11,12)","FFFIRKXTFQCCKJ-UHFFFAOYSA-N","Cc1cc(C)c(c(C)c1)C(O)=O","-2.3566","0.0","1","G1","164.20399999999998","2.31006","47.61230000000002","12.0","1.0","1.0","2.0","1.0","64.0","1.0","0.0","0.0","1.0","37.3","71.84692742932317","3.3798143363005275","303.6056187059636"
"B-982","benzoic acid, 2,6-dihydroxy-4-methyl-","InChI=1S/C8H8O4/c1-4-2-5(9)7(8(11)12)6(10)3-4/h2-3,9-10H,1H3,(H,11,12)","YBZAVRDNSPUMFK-UHFFFAOYSA-N","Cc1cc(O)c(C(O)=O)c(O)c1","-2.0496","0.0","1","G1","168.148","1.1044199999999997","41.467900000000014","12.0","3.0","3.0","4.0","1.0","64.0","1.0","0.0","0.0","1.0","77.76","68.70551070492198","3.3798143363005266","306.8248996548372"
"B-983","2,4,6(1h,3h,5h)-pyrimidinetrione, 5-nitro-","InChI=1S/C4H3N3O5/c8-2-1(7(11)12)3(9)6-4(10)5-2/h1H,(H2,5,6,8,9,10)","ABICJYZKIYUWEE-UHFFFAOYSA-N","[O-][N+](=O)C1C(=O)NC(=O)NC1=O","-2.2840000000000003","0.017999999999999794","2","G3","173.084","-2.0023","32.46379999999999","12.0","5.0","2.0","8.0","1.0","64.0","0.0","1.0","1.0","1.0","118.41","65.06551260733733","2.878898348986729","264.4179197494528"
"B-984","santonin","InChI=1S/C15H18O3/c1-8-10-4-6-15(3)7-5-11(16)9(2)12(15)13(10)18-14(8)17/h5,7-8,10,13H,4,6H2,1-3H3/t8-,10-,13-,15-/m0/s1","XJHDMGJURBVLLE-BOCCBSBMSA-N","C[C@H]1[C@@H]2CC[C@@]3(C)C=CC(=O)C(=C3[C@H]2OC1=O)C","-3.0905","0.0","1","G1","246.30599999999995","2.419600000000001","66.72200000000002","18.0","3.0","0.0","3.0","0.0","96.0","0.0","2.0","3.0","3.0","43.370000000000005","106.88833053402027","2.0989565315857823","499.8681035469155"
"B-985","epiandrosterone","InChI=1S/C19H30O2/c1-18-9-7-13(20)11-12(18)3-4-14-15-5-6-17(21)19(15,2)10-8-16(14)18/h12-16,20H,3-11H2,1-2H3/t12-,13-,14-,15-,16-,18-,19-/m0/s1","QGXBDMJGAMFCBF-LUJOEAJASA-N","C[C@]12CC[C@H](O)C[C@@H]1CC[C@@H]3[C@@H]2CC[C@@]4(C)[C@H]3CCC4=O","-4.1577","0.0","1","G1","290.447","3.959100000000003","82.74080000000006","21.0","2.0","1.0","2.0","0.0","118.0","0.0","4.0","4.0","4.0","37.3","128.24064032509136","1.6375393766570927","458.4827066363416"
"B-986","ecgonine","InChI=1S/C9H15NO3/c1-10-5-2-3-6(10)8(9(12)13)7(11)4-5/h5-8,11H,2-4H2,1H3,(H,12,13)/t5?,6?,7-,8+/m0/s1","PHMBVCPLDPDESM-RLXKETGRSA-N","CN1C2CCC1[C@H]([C@@H](O)C2)C(O)=O","-0.0173","0.0","1","G1","185.22299999999996","-0.0854000000000002","46.32260000000002","13.0","3.0","2.0","4.0","1.0","74.0","0.0","2.0","2.0","2.0","60.77","77.15694891058313","2.2145938689633917","230.89970385530546"
"B-987","fervenulin","InChI=1S/C7H7N5O2/c1-11-5-4(8-3-9-10-5)6(13)12(2)7(11)14/h3H,1-2H3","RRTKVYSLIGQWCO-UHFFFAOYSA-N","CN1C(=O)N(C)c2nncnc2C1=O","-1.9849","0.0","1","G1","193.166","-1.5777999999999999","47.81500000000001","14.0","7.0","0.0","7.0","0.0","72.0","2.0","0.0","0.0","2.0","82.66999999999999","77.65263252644085","3.1901494179651735","611.4867558573088"
"B-988","osthole","InChI=1S/C15H16O3/c1-10(2)4-7-12-13(17-3)8-5-11-6-9-14(16)18-15(11)12/h4-6,8-9H,7H2,1-3H3","MBRLOUHOWLUMFF-UHFFFAOYSA-N","COc1ccc2C=CC(=O)Oc2c1CC=C(C)C","-4.3087","0.0","1","G1","244.28999999999994","3.3103000000000016","72.17100000000003","18.0","3.0","0.0","3.0","3.0","94.0","2.0","0.0","0.0","2.0","39.44","105.69300145898724","2.6731144179947726","646.3265679125369"
"B-989","binapacryl","InChI=1S/C15H18N2O6/c1-5-10(4)12-7-11(16(19)20)8-13(17(21)22)15(12)23-14(18)6-9(2)3/h6-8,10H,5H2,1-4H3","ZRDUSMYWDRPZRM-UHFFFAOYSA-N","CCC(C)c1cc(cc(c1OC(=O)C=C(C)C)[N+]([O-])=O)[N+]([O-])=O","-5.5083","0.0","1","G1","322.31700000000006","3.888100000000004","83.52280000000003","23.0","6.0","0.0","8.0","6.0","124.0","1.0","0.0","0.0","1.0","112.58000000000001","132.6072978914324","3.5541562107782054","676.7898291174962"
"B-990","iridomyrmecin","InChI=1S/C10H16O2/c1-6-3-4-8-7(2)10(11)12-5-9(6)8/h6-9H,3-5H2,1-2H3","LYEFRAMOOLOUKA-UHFFFAOYSA-N","CC1CCC2C(C)C(=O)OCC12","-1.9249","0.0","1","G1","168.23599999999996","1.8416000000000001","45.50100000000002","12.0","2.0","0.0","2.0","0.0","68.0","0.0","2.0","2.0","2.0","26.3","73.28713507989119","2.136193163680383","200.0152602798213"
"B-992","pyrrolo[2,1-b]quinazolin-9(1h)-one,2,3-dihydro-3","InChI=1S/C11H10N2O2/c14-9-5-6-13-10(9)12-8-4-2-1-3-7(8)11(13)15/h1-4,9,14H,5-6H2/t9-/m0/s1","SDIVYZXRQHWCKF-VIFPVBQESA-N","O[C@H]1CCN2C(=O)c3ccccc3N=C12","-2.106","0.0","1","G1","202.213","0.8336000000000001","55.57980000000003","15.0","4.0","1.0","4.0","0.0","76.0","2.0","0.0","1.0","3.0","55.120000000000005","85.80708614162089","2.4613620410536785","588.6478823313821"