"ID","Name","InChI","InChIKey","SMILES","Solubility","SD","Ocurrences","Group","MolWt","MolLogP","MolMR","HeavyAtomCount","NumHAcceptors","NumHDonors","NumHeteroatoms","NumRotatableBonds","NumValenceElectrons","NumAromaticRings","NumSaturatedRings","NumAliphaticRings","RingCount","TPSA","LabuteASA","BalabanJ","BertzCT"
"B-1969","benzamide, n-(3,4-dichlorophenyl)-n-[(dimethylam","InChI=1S/C16H14Cl2N2O2/c1-19(2)16(22)20(12-8-9-13(17)14(18)10-12)15(21)11-6-4-3-5-7-11/h3-10H,1-2H3","QQXXYTVEGCOZRF-UHFFFAOYSA-N","CN(C)C(=O)N(c1ccc(Cl)c(Cl)c1)C(=O)c2ccccc2","-4.3238","0.0","1","G1","337.206","4.321800000000003","88.79650000000002","22.0","2.0","0.0","6.0","2.0","114.0","2.0","0.0","0.0","2.0","40.620000000000005","138.39750977740502","2.49315358790122","702.5469234659057"
"B-1970","urea, chloro-","InChI=1S/CH3ClN2O/c2-4-1(3)5/h(H3,3,4,5)","RMXVHZFHSKRNJN-UHFFFAOYSA-N","NC(=O)NCl","0.3256","0.0","1","G1","94.501","-0.1914999999999999","18.572100000000002","5.0","1.0","2.0","4.0","0.0","30.0","0.0","0.0","0.0","0.0","55.120000000000005","34.20546306792876","2.8473789230876716","44.912609383243264"
"B-1971","glycine, n-(n-leucylglycyl)-","InChI=1S/C10H19N3O4/c1-6(2)3-7(11)10(17)13-4-8(14)12-5-9(15)16/h6-7H,3-5,11H2,1-2H3,(H,12,14)(H,13,17)(H,15,16)/t7-/m0/s1","VWHGTYCRDRBSFI-ZETCQYMHSA-N","CC(C)C[C@H](N)C(=O)NCC(=O)NCC(O)=O","0.2124","0.0","1","G1","245.27899999999997","-1.3231999999999968","61.08560000000002","17.0","4.0","4.0","7.0","7.0","98.0","0.0","0.0","0.0","0.0","121.52000000000001","99.74214517395515","3.827406376406721","291.27559756761787"
"B-1972","d-glycero-d-gulo-heptose","InChI=1S/C7H14O7/c8-1-3(10)5(12)7(14)6(13)4(11)2-9/h1,3-7,9-14H,2H2","YPZMPEPLWKRVLD-UHFFFAOYSA-N","OCC(O)C(O)C(O)C(O)C(O)C=O","-0.3226","0.0","1","G1","210.18200000000002","-4.017899999999999","43.18380000000002","14.0","7.0","6.0","7.0","6.0","84.0","0.0","0.0","0.0","0.0","138.45000000000002","79.85582832742902","4.28978166597642","173.42124551085624"
"B-1973","benzoic acid, 2-hydroxy-5-(phenylazo)-","InChI=1S/C13H10N2O3/c16-12-7-6-10(8-11(12)13(17)18)15-14-9-4-2-1-3-5-9/h1-8,14H,(H,17,18)/b15-10+","RHNZXOLQSPSLLQ-XNTDXEJSSA-N","OC(=O)C1=C/C(C=CC1=O)=N/Nc2ccccc2","-3.0559","0.0","1","G1","242.234","1.6043999999999998","67.36550000000001","18.0","4.0","2.0","5.0","3.0","90.0","1.0","0.0","1.0","2.0","78.75999999999999","103.13355934436218","2.1687303253769925","571.1589699483147"
"B-1974","benzenebutanoic acid, 4-methoxy-¥-oxo-","InChI=1S/C11H12O4/c1-15-9-4-2-8(3-5-9)10(12)6-7-11(13)14/h2-5H,6-7H2,1H3,(H,13,14)","OMTDIBZSUZNVJK-UHFFFAOYSA-N","COc1ccc(cc1)C(=O)CCC(O)=O","-1.0632","0.0","1","G1","208.21299999999994","1.7427","54.19430000000002","15.0","3.0","1.0","4.0","5.0","80.0","1.0","0.0","0.0","1.0","63.6","87.48693687327045","2.616933050569206","353.3556003241696"
"B-1975","butanoic acid, 2-[(aminoiminomethyl)amino]-","InChI=1S/C5H11N3O2/c1-2-4(5(9)10)7-3-8-6/h3-4H,2,6H2,1H3,(H,7,8)(H,9,10)","YWCQQPRYWSJMLI-UHFFFAOYSA-N","CCC(NC=NN)C(O)=O","-0.8608","0.0","1","G1","145.162","-0.6587999999999994","37.529899999999984","10.0","3.0","3.0","5.0","4.0","58.0","0.0","0.0","0.0","0.0","87.71000000000001","58.909986724371606","3.7138648911525936","134.85475297227333"
"B-1976","2,4,6-cycloheptatrien-1-one, 5-bromo-2-hydroxy-","InChI=1S/C7H5BrO2/c8-5-1-3-6(9)7(10)4-2-5/h1-4H,(H,9,10)","DAHLUZDNJJOKGS-UHFFFAOYSA-N","OC1=CC=C(Br)C=CC1=O","-3.5629","0.0","1","G1","201.019","1.5148999999999997","42.07680000000001","10.0","2.0","1.0","3.0","0.0","52.0","1.0","0.0","0.0","1.0","37.3","66.26519413731032","3.4253455898726597","295.80075915911806"
"B-1977","1,2,5,6,9,10-hexabromocyclododecane","InChI=1S/C12H18Br6/c13-7-1-2-8(14)10(16)5-6-12(18)11(17)4-3-9(7)15/h7-12H,1-6H2","DEIGXXQKDWULML-UHFFFAOYSA-N","BrC1CCC(Br)C(Br)CCC(Br)C(Br)CCC1Br","-7.8728","0.0","1","G1","641.6999999999999","6.921600000000004","103.99200000000005","18.0","0.0","0.0","6.0","0.0","108.0","0.0","1.0","1.0","1.0","0.0","160.95306876651117","2.612152805754491","174.56842503028858"
"B-1978","lactic acid, 2-methyl-, isobutyl ester","InChI=1S/C8H16O3/c1-6(2)5-11-7(9)8(3,4)10/h6,10H,5H2,1-4H3","OMLWQIBXAJLLRC-UHFFFAOYSA-N","CC(C)COC(=O)C(C)(C)O","-0.7276","0.0","1","G1","160.21299999999997","0.9564999999999999","42.09480000000001","11.0","3.0","1.0","3.0","3.0","66.0","0.0","0.0","0.0","0.0","46.53","67.36314691035246","3.7127635189245645","132.76282190103143"
"B-1979","morpholine, 4-(2-hydroxybenzoyl)-","InChI=1S/C11H13NO3/c13-10-4-2-1-3-9(10)11(14)12-5-7-15-8-6-12/h1-4,13H,5-8H2","TUFGIGGYNZUDAL-UHFFFAOYSA-N","Oc1ccccc1C(=O)N2CCOCC2","-1.7037","0.0","1","G1","207.22899999999993","0.8646000000000003","54.829300000000025","15.0","3.0","1.0","4.0","1.0","80.0","1.0","1.0","1.0","2.0","49.769999999999996","88.07941728990082","2.1613139660984357","358.60559605618823"
"B-1980","2,3-dichloronitrobenzene","InChI=1S/C6H3Cl2NO2/c7-4-2-1-3-5(6(4)8)9(10)11/h1-3H","CMVQZRLQEOAYSW-UHFFFAOYSA-N","[O-][N+](=O)c1cccc(Cl)c1Cl","-3.4881","0.014786485900000201","2","G3","192.00099999999998","2.901600000000001","43.11640000000001","11.0","2.0","0.0","5.0","1.0","58.0","1.0","0.0","0.0","1.0","43.14","72.6909112957601","3.2735808215375433","300.6337992264624"
"B-1981","propane, 1,3-dibromo-2,2-bis(bromomethyl)-","InChI=1S/C5H8Br4/c6-1-5(2-7,3-8)4-9/h1-4H2","OYSVBCSOQFXYHK-UHFFFAOYSA-N","BrCC(CBr)(CBr)CBr","-5.3844","0.0","1","G1","387.735","3.5524000000000013","57.609000000000016","9.0","0.0","0.0","4.0","4.0","56.0","0.0","0.0","0.0","0.0","0.0","89.66920990798141","3.824684203207495","51.84847143196431"
"B-1982","tetrapropyl thiopyrophosphorate","InChI=1S/C12H28O5P2S2/c1-5-9-13-18(20,14-10-6-2)17-19(21,15-11-7-3)16-12-8-4/h5-12H2,1-4H3","IIDFEIDMIKSJSV-UHFFFAOYSA-N","CCCO[P](=S)(OCCC)O[P](=S)(OCCC)OCCC","-4.1009","0.0","1","G1","378.4330000000002","5.158400000000005","94.62700000000007","21.0","7.0","0.0","9.0","14.0","128.0","0.0","0.0","0.0","0.0","46.150000000000006","139.0811966401526","4.902321546670488","298.53948727292124"
"B-1983","1,10-phenanthroline, 4,7-dimethyl-","InChI=1S/C14H12N2/c1-9-5-7-15-13-11(9)3-4-12-10(2)6-8-16-14(12)13/h3-8H,1-2H3","JIVLDFFWTQYGSR-UHFFFAOYSA-N","Cc1ccnc2c1ccc3c(C)ccnc23","-3.9686","0.0","1","G1","208.26399999999998","3.399840000000002","66.51800000000003","16.0","2.0","0.0","2.0","0.0","78.0","3.0","0.0","0.0","3.0","25.78","93.96391237365361","2.6023578475972498","625.9454776678718"
"B-1984","peroxide, bis(1-oxopropyl)","InChI=1S/C6H10O4/c1-3-5(7)9-10-6(8)4-2/h3-4H2,1-2H3","KOPQZJAYZFAPBC-UHFFFAOYSA-N","CCC(=O)OOC(=O)CC","-0.9634","0.0","1","G1","146.14199999999997","0.8077999999999999","32.765999999999984","10.0","4.0","0.0","4.0","2.0","58.0","0.0","0.0","0.0","0.0","52.6","59.043391574652176","3.352921516464098","113.70950594454669"
"B-1987","2-(p-chlorophenoxy)propionic acid","InChI=1S/C9H9ClO3/c1-6(9(11)12)13-8-4-2-7(10)3-5-8/h2-6H,1H3,(H,11,12)","DKHJWWRYTONYHB-UHFFFAOYSA-N","CC(Oc1ccc(Cl)cc1)C(O)=O","-2.1351","0.0","1","G1","200.62099999999998","2.1918999999999995","49.17780000000002","13.0","2.0","1.0","4.0","3.0","70.0","1.0","0.0","0.0","1.0","46.53","80.89879677131513","2.641763904889644","294.23305328030176"
"B-1988","dimethylguanidine","InChI=1S/C3H9N3/c1-6(2)3(4)5/h1-2H3,(H3,4,5)","SWSQBOPZIKWTGO-UHFFFAOYSA-N","CN(C)C(N)=N","-1.7306","0.0","1","G1","87.126","-0.5585299999999997","25.6011","6.0","1.0","2.0","3.0","0.0","36.0","0.0","0.0","0.0","0.0","53.11","37.254210623103646","3.2575861612334887","57.058650025961626"
"B-1989","1-naphthalenecarboxylic acid, 3,4-dihydro-","InChI=1S/C11H10O2/c12-11(13)10-7-3-5-8-4-1-2-6-9(8)10/h1-2,4,6-7H,3,5H2,(H,12,13)","JNPFDSPGHQBUPF-UHFFFAOYSA-N","OC(=O)C1=CCCc2ccccc12","-2.7939","0.0","1","G1","174.199","2.1008","50.37580000000003","13.0","1.0","1.0","2.0","1.0","66.0","1.0","0.0","1.0","2.0","37.3","76.5164353580063","2.5325224086759315","377.4315981994466"
"B-1990","d-glycero-l-gulo-heptitol","InChI=1S/C7H16O7/c8-1-3(10)5(12)7(14)6(13)4(11)2-9/h3-14H,1-2H2","OXQKEKGBFMQTML-UHFFFAOYSA-N","OCC(O)C(O)C(O)C(O)C(O)CO","0.3722","0.0","1","G1","212.198","-4.224499999999998","44.20560000000002","14.0","7.0","7.0","7.0","6.0","86.0","0.0","0.0","0.0","0.0","141.61","80.48853997958128","4.221713709086299","136.97373660251156"
"B-1991","2-cyclohexen-1-one, oxime, (e)-","InChI=1S/C6H9NO/c8-7-6-4-2-1-3-5-6/h2,4,8H,1,3,5H2/b7-6-","WNPVAXLJVUXYFU-SREVYHEPSA-N","O/N=C/1CCCC=C1","-0.7034","0.0","1","G1","111.14399999999999","1.5567","32.21249999999999","8.0","2.0","1.0","2.0","0.0","44.0","0.0","0.0","1.0","1.0","32.59","48.512122151633214","2.5621664007011264","126.49022499567306"
"B-1993","1-butene, 4-isothiocyanato-","InChI=1S/C5H7NS/c1-2-3-4-6-5-7/h2H,1,3-4H2","SKIHGKNFJKJXPX-UHFFFAOYSA-N","C=CCCN=C=S","-2.391","0.0","1","G1","113.18499999999997","1.6653","34.707","7.0","2.0","0.0","2.0","3.0","38.0","0.0","0.0","0.0","0.0","12.36","48.76351918629672","2.972279667743398","92.25327665163482"
"B-1994","tyrosine, 3,5-dichloro-","InChI=1S/C9H9Cl2NO3/c10-5-1-4(2-6(11)8(5)13)3-7(12)9(14)15/h1-2,7,13H,3,12H2,(H,14,15)/t7-/m0/s1","MPHURJQUHZHALJ-ZETCQYMHSA-N","N[C@@H](Cc1cc(Cl)c(O)c(Cl)c1)C(O)=O","-0.7959999999999999","0.0","1","G1","250.081","1.6533999999999998","57.44200000000001","15.0","3.0","3.0","6.0","3.0","82.0","1.0","0.0","0.0","1.0","83.55000000000001","96.22264221789865","2.9237270307423464","371.9390010832792"
"B-1995","2-chloro-4,6-diamino-s-triazine","InChI=1S/C3H4ClN5/c4-1-7-2(5)9-3(6)8-1/h(H4,5,6,7,8,9)","FVFVNNKYKYZTJU-UHFFFAOYSA-N","Nc1nc(N)nc(Cl)n1","-2.3849","0.0","1","G1","145.553","-0.31060000000000015","33.6618","9.0","5.0","2.0","6.0","0.0","48.0","1.0","0.0","0.0","1.0","90.71","56.073394683243606","3.165670309917317","172.96531218488838"
"B-1996","propanamide, n,n'-1,2-ethanediylbis-","InChI=1S/C8H16N2O2/c1-3-7(11)9-5-6-10-8(12)4-2/h3-6H2,1-2H3,(H,9,11)(H,10,12)","USEVKDWMVPLICN-UHFFFAOYSA-N","CCC(=O)NCCNC(=O)CC","0.3746","0.0","1","G1","172.22799999999998","0.03879999999999928","46.60140000000002","12.0","2.0","2.0","4.0","5.0","70.0","0.0","0.0","0.0","0.0","58.2","72.71661439590942","3.211729783466108","139.13685006057713"
"B-1997","o,p'-dde","InChI=1S/C14H8Cl4/c15-10-7-5-9(6-8-10)13(14(17)18)11-3-1-2-4-12(11)16/h1-8H","ZDYJWDIWLRZXDB-UHFFFAOYSA-N","Clc1ccc(cc1)C(=C(Cl)Cl)c2ccccc2Cl","-6.3563","0.0","1","G1","318.03","6.187900000000002","80.63200000000002","18.0","0.0","0.0","4.0","2.0","92.0","2.0","0.0","0.0","2.0","0.0","125.74184342969664","2.5901616570734314","580.9979162169988"
"B-1998","[1,2,5]selenadiazolo[3,4-d]pyrimidine-5,7(4h,6h)","InChI=1S/C6H6N4O2Se/c1-9-4-3(7-13-8-4)5(11)10(2)6(9)12/h1-2H3","DBYGTBWHDSPWSZ-UHFFFAOYSA-N","CN1C(=O)N(C)c2n[se]nc2C1=O","-2.2994","0.0","1","G1","245.1","-1.9157999999999993","46.96000000000001","13.0","6.0","0.0","7.0","0.0","68.0","2.0","0.0","0.0","2.0","69.78","78.66202328449891","3.21185381303522","578.3122688323334"
"B-1999","2-furancarboxylic acid, 4-bromo-","InChI=1S/C5H3BrO3/c6-3-1-4(5(7)8)9-2-3/h1-2H,(H,7,8)","QALYBHRYGIXHOF-UHFFFAOYSA-N","OC(=O)c1occ(Br)c1","-1.1841","0.0","1","G1","190.98","1.7403","33.3673","9.0","2.0","1.0","4.0","1.0","48.0","1.0","0.0","0.0","1.0","50.44","59.41397795585155","2.9776485317868318","227.8619085587166"
"B-2001","piperalin","InChI=1S/C16H21Cl2NO2/c1-12-5-2-3-8-19(12)9-4-10-21-16(20)13-6-7-14(17)15(18)11-13/h6-7,11-12H,2-5,8-10H2,1H3","BZGLBXYQOMFXAU-UHFFFAOYSA-N","CC1CCCCN1CCCOC(=O)c2ccc(Cl)c(Cl)c2","-4.2178","0.0","1","G1","330.255","4.414700000000004","86.24750000000004","21.0","3.0","0.0","5.0","5.0","116.0","1.0","1.0","1.0","2.0","29.54","135.71642656345117","1.723722008589725","493.16536229092077"
"B-2002","quinoxaline, 5,6,7,8-tetrachloro-","InChI=1S/C8H2Cl4N2/c9-3-4(10)6(12)8-7(5(3)11)13-1-2-14-8/h1-2H","NHTGQOXRZFUGJX-UHFFFAOYSA-N","Clc1c(Cl)c(Cl)c2nccnc2c1Cl","-5.428","0.0","1","G1","267.93","4.2434","59.578","14.0","2.0","0.0","6.0","0.0","72.0","2.0","0.0","0.0","2.0","25.78","99.76542852065187","3.021805296135276","465.6577056479839"
"B-2003","2,2,5-trimethylhexane","InChI=1S/C9H20/c1-8(2)6-7-9(3,4)5/h8H,6-7H2,1-5H3","HHOSMYBYIHNXNO-UHFFFAOYSA-N","CC(C)CCC(C)(C)C","-5.0474","0.0","1","G1","128.259","3.468700000000003","43.52700000000001","9.0","0.0","0.0","0.0","2.0","56.0","0.0","0.0","0.0","0.0","0.0","59.6587879430024","3.2807108400137506","64.59772060569361"
"B-2004","carbamic acid, diethyl-, ethyl ester","InChI=1S/C7H15NO2/c1-4-8(5-2)7(9)10-6-3/h4-6H2,1-3H3","VAJCYQHLYBTSHG-UHFFFAOYSA-N","CCOC(=O)N(CC)CC","-1.0651","0.0","1","G1","145.202","1.4847","39.943000000000005","10.0","2.0","0.0","3.0","3.0","60.0","0.0","0.0","0.0","0.0","29.54","61.963804713963206","3.649620758476938","99.7792291661388"
"B-2005","2,4,6-trihydroxybenzophenone","InChI=1S/C13H10O4/c14-9-6-10(15)12(11(16)7-9)13(17)8-4-2-1-3-5-8/h1-7,14-16H","CPEXFJVZFNYXGU-UHFFFAOYSA-N","Oc1cc(O)c(c(O)c1)C(=O)c2ccccc2","-1.8708","0.0","1","G1","230.219","2.0343999999999993","61.31090000000003","17.0","4.0","3.0","4.0","2.0","86.0","2.0","0.0","0.0","2.0","77.75999999999999","97.39766279658942","2.521690657933588","537.8821875173596"
"B-2006","di-d-fructofuranose 1,2':2,1'-dianhydride","InChI=1S/C12H20O10/c13-1-5-7(15)9(17)11(21-5)3-20-12(4-19-11)10(18)8(16)6(2-14)22-12/h5-10,13-18H,1-4H2/t5-,6-,7-,8-,9+,10+,11?,12?/m1/s1","DKOQIDXJOZQKIG-NCEFIRPQSA-N","OC[C@H]1OC2(COC3(CO2)O[C@H](CO)[C@@H](O)[C@@H]3O)[C@@H](O)[C@@H]1O","-0.0058","0.0","1","G1","324.282","-4.348399999999995","65.31080000000004","22.0","10.0","6.0","10.0","2.0","128.0","0.0","3.0","3.0","3.0","158.3","124.95570425680815","1.7312996703803112","370.7111556742056"
"B-2007","sulfanilamide, n1-(5-isobutyl-1,3,4-thiadiazol-2","InChI=1S/C12H16N4O2S2/c1-8(2)7-11-14-15-12(19-11)16-20(17,18)10-5-3-9(13)4-6-10/h3-6,8H,7,13H2,1-2H3,(H,15,16)","IDXLLBBFRBQZFE-UHFFFAOYSA-N","CC(C)Cc1sc(N[S](=O)(=O)c2ccc(N)cc2)nn1","-3.8226","0.0","1","G1","312.42","2.1196","80.11390000000002","20.0","6.0","2.0","8.0","5.0","108.0","2.0","0.0","0.0","2.0","97.97","121.64690735689253","2.1561421228361213","677.7378146627927"
"B-2008","2-amino-3,5-dibromo-n-cyclohexyl-n-methylbenzene","InChI=1S/C14H20Br2N2/c1-18(12-5-3-2-4-6-12)9-10-7-11(15)8-13(16)14(10)17/h7-8,12H,2-6,9,17H2,1H3","OJGDCBLYJGHCIH-UHFFFAOYSA-N","CN(Cc1cc(Br)cc(Br)c1N)C2CCCCC2","-1.9733","0.0","1","G1","376.13600000000025","4.558300000000004","84.59440000000004","18.0","2.0","1.0","4.0","3.0","100.0","1.0","1.0","1.0","2.0","29.259999999999998","126.17992845963941","2.0797732804513314","414.5001729075137"
"B-2009","chlorphenoxamide","InChI=1S/C17H16Cl2N2O5/c18-16(19)17(23)20(9-10-22)11-12-1-5-14(6-2-12)26-15-7-3-13(4-8-15)21(24)25/h1-8,16,22H,9-11H2","ODCUSWJXZDHLKV-UHFFFAOYSA-N","OCCN(Cc1ccc(Oc2ccc(cc2)[N+]([O-])=O)cc1)C(=O)C(Cl)Cl","-5.1241","0.0","1","G1","399.23","3.511700000000002","97.60920000000002","26.0","5.0","1.0","9.0","8.0","138.0","2.0","0.0","0.0","2.0","92.91","159.40185082575724","2.02276670984657","750.7534807965404"
"B-2010","propanedioic acid, nonyl-","InChI=1S/C12H22O4/c1-2-3-4-5-6-7-8-9-10(11(13)14)12(15)16/h10H,2-9H2,1H3,(H,13,14)(H,15,16)","FWQNYUYRXNWOOM-UHFFFAOYSA-N","CCCCCCCCCC(C(O)=O)C(O)=O","-3.3016","0.0","1","G1","230.304","2.9125000000000005","61.371600000000036","16.0","2.0","2.0","4.0","10.0","94.0","0.0","0.0","0.0","0.0","74.6","96.66512599067184","3.4846981619629873","199.06429996996872"
"B-2011","2-cf3-4,5-dichlorobenzimidazole","InChI=1S/C8H3Cl2F3N2/c9-3-1-2-4-6(5(3)10)15-7(14-4)8(11,12)13/h1-2H,(H,14,15)","KSROTSBULDYPKA-UHFFFAOYSA-N","FC(F)(F)c1[nH]c2ccc(Cl)c(Cl)c2n1","-3.5677","0.0","1","G1","255.026","3.8884999999999996","51.115700000000004","15.0","1.0","1.0","7.0","0.0","80.0","2.0","0.0","0.0","2.0","28.68","92.00995683013161","2.716164445381658","518.3165183204861"
"B-2012","reposal","InChI=1S/C14H18N2O3/c1-2-14(11(17)15-13(19)16-12(14)18)10-6-8-3-4-9(5-8)7-10/h6,8-9H,2-5,7H2,1H3,(H2,15,16,17,18,19)","MKELYWOVSPVORM-UHFFFAOYSA-N","CCC1(C(=O)NC(=O)NC1=O)C2=CC3CCC(C3)C2","-2.7696","0.06368701245588101","3","G5","262.30899999999997","1.4951999999999999","67.93640000000002","19.0","3.0","2.0","5.0","2.0","102.0","0.0","2.0","3.0","3.0","75.27000000000001","111.36069268956089","2.008160336598171","474.91954501412886"
"B-2013","butanedioic acid, methyl-, (r)-","InChI=1S/C5H8O4/c1-3(5(8)9)2-4(6)7/h3H,2H2,1H3,(H,6,7)(H,8,9)/t3-/m1/s1","WXUAQHNMJWJLTG-GSVOUGTGSA-N","C[C@H](CC(O)=O)C(O)=O","0.6311","0.0","1","G1","132.11499999999998","0.18180000000000007","29.05259999999999","9.0","2.0","2.0","4.0","3.0","52.0","0.0","0.0","0.0","0.0","74.6","52.110531189895525","3.632432151939845","128.919684538544"
"B-2014","d-gluconic acid, 2-amino-2-deoxy-","InChI=1S/C6H13NO6/c7-3(6(12)13)5(11)4(10)2(9)1-8/h2-5,8-11H,1,7H2,(H,12,13)","UFYKDFXCZBTLOO-UHFFFAOYSA-N","NC(C(O)C(O)C(O)CO)C(O)=O","-0.8590000000000001","0.0","1","G1","195.17099999999996","-3.5267000000000004","40.71740000000001","13.0","6.0","6.0","7.0","5.0","78.0","0.0","0.0","0.0","0.0","144.24","74.03654315784912","4.235100562818548","174.5074118380366"
"B-2015","benzeneethanamine, n-(phenylmethyl)-","InChI=1S/C15H17N/c1-3-7-14(8-4-1)11-12-16-13-15-9-5-2-6-10-15/h1-10,16H,11-13H2","UPABQMWFWCMOFV-UHFFFAOYSA-N","C(Cc1ccccc1)NCc2ccccc2","-2.7229","0.0","1","G1","211.308","3.0189000000000012","68.29470000000003","16.0","1.0","1.0","1.0","5.0","82.0","2.0","0.0","0.0","2.0","12.03","97.13318585235888","1.6982174709605096","352.7948325711524"
"B-2016","4-ethylacetanilide","InChI=1S/C10H13NO/c1-3-9-4-6-10(7-5-9)11-8(2)12/h4-7H,3H2,1-2H3,(H,11,12)","HOPWGOFWAPWHDS-UHFFFAOYSA-N","CCc1ccc(NC(C)=O)cc1","-2.1453","0.0","1","G1","163.22","2.2074","50.12370000000003","12.0","1.0","1.0","2.0","2.0","64.0","1.0","0.0","0.0","1.0","29.1","72.60255586073521","2.7091478243736495","263.6719978261821"
"B-2017","undecanoic acid, 11-hydroxy-","InChI=1S/C11H22O3/c12-10-8-6-4-2-1-3-5-7-9-11(13)14/h12H,1-10H2,(H,13,14)/p-1","KNRCBASNXNXUQQ-UHFFFAOYSA-M","OCCCCCCCCCCC([O-])=O","-2.7039","0.0","1","G1","201.28599999999997","1.2394999999999998","53.645800000000044","14.0","3.0","1.0","3.0","10.0","84.0","0.0","0.0","0.0","0.0","60.36","86.13866177623144","2.884064614706359","134.49433360163272"
"B-2018","spiro[benzofuran-2(3h), 1'-[2]cyclohexene]-3,4'-","InChI=1S/C17H18O6/c1-9-5-10(18)6-14(22-4)17(9)16(19)15-12(21-3)7-11(20-2)8-13(15)23-17/h6-9H,5H2,1-4H3","QPCYNIYZPDJCMB-UHFFFAOYSA-N","COc1cc(OC)c2C(=O)C3(Oc2c1)C(C)CC(=O)C=C3OC","-3.699","0.0","1","G1","318.32500000000005","2.1569000000000003","81.11550000000003","23.0","6.0","0.0","6.0","3.0","122.0","1.0","0.0","2.0","3.0","71.06","133.521726156732","2.1985713585727407","720.0389316296885"
"B-2019","butanal, 3-ethoxy-2-oxo-","InChI=1S/C6H10O3/c1-3-9-5(2)6(8)4-7/h4-5H,3H2,1-2H3","VUNAKDMJSGEODG-UHFFFAOYSA-N","CCOC(C)C(=O)C=O","-0.1554","0.0","1","G1","130.143","0.1794","32.158999999999985","9.0","3.0","0.0","3.0","4.0","52.0","0.0","0.0","0.0","0.0","43.370000000000005","54.00055102940699","3.5787109648268176","108.87060032410331"
"B-2020","chlorophacinone","InChI=1S/C23H15ClO3/c24-16-12-10-15(11-13-16)19(14-6-2-1-3-7-14)23(27)20-21(25)17-8-4-5-9-18(17)22(20)26/h1-13,19-20H","UDHXJZHVNHGCEC-UHFFFAOYSA-N","Clc1ccc(cc1)C(C(=O)C2C(=O)c3ccccc3C2=O)c4ccccc4","-3.5738","0.0","1","G1","374.8230000000001","4.736400000000003","103.33700000000002","27.0","3.0","0.0","4.0","4.0","132.0","3.0","0.0","1.0","4.0","51.21","161.15230347709178","1.7945238050547325","1003.7333182801441"
"B-2021","5-methylchrysene","InChI=1S/C19H14/c1-13-12-15-7-3-4-8-16(15)18-11-10-14-6-2-5-9-17(14)19(13)18/h2-12H,1H3","GOHBXWHNJHENRX-UHFFFAOYSA-N","Cc1cc2ccccc2c3ccc4ccccc4c13","-6.5920000000000005","0.0","1","G1","242.321","5.454620000000004","83.69700000000006","19.0","0.0","0.0","0.0","0.0","90.0","4.0","0.0","0.0","4.0","0.0","111.8413388290992","2.3547447512611064","916.7400111490208"