"ID","Name","InChI","InChIKey","SMILES","Solubility","SD","Ocurrences","Group","MolWt","MolLogP","MolMR","HeavyAtomCount","NumHAcceptors","NumHDonors","NumHeteroatoms","NumRotatableBonds","NumValenceElectrons","NumAromaticRings","NumSaturatedRings","NumAliphaticRings","RingCount","TPSA","LabuteASA","BalabanJ","BertzCT"
"B-1974","benzenebutanoic acid, 4-methoxy--oxo-","InChI=1S/C11H12O4/c1-15-9-4-2-8(3-5-9)10(12)6-7-11(13)14/h2-5H,6-7H2,1H3,(H,13,14)","OMTDIBZSUZNVJK-UHFFFAOYSA-N","COc1ccc(cc1)C(=O)CCC(O)=O","-1.0632","0.0","1","G1","208.21299999999994","1.7427","54.19430000000002","15.0","3.0","1.0","4.0","5.0","80.0","1.0","0.0","0.0","1.0","63.6","87.48693687327045","2.616933050569206","353.3556003241696"
"B-2136","d-glycero-d-gulo-heptopyranoside, phenyl, -","InChI=1S/C13H18O7/c14-6-8(15)12-10(17)9(16)11(18)13(20-12)19-7-4-2-1-3-5-7/h1-5,8-18H,6H2","UWYXADYVSWKWAX-UHFFFAOYSA-N","OCC(O)C1OC(Oc2ccccc2)C(O)C(O)C1O","-1.5537","0.0","1","G1","286.28000000000003","-1.7738000000000003","66.84400000000004","20.0","7.0","5.0","7.0","4.0","112.0","1.0","1.0","1.0","2.0","119.61000000000001","115.17842598673782","2.113871160709672","412.44051540435873"
"B-2486","-d-glucofuranose, 1,2:5,6-bis-o-(1-methylethyli","InChI=1S/C14H22O7/c1-7(15)17-10-9(8-6-16-13(2,3)19-8)18-12-11(10)20-14(4,5)21-12/h8-12H,6H2,1-5H3/t8-,9-,10+,11-,12-/m1/s1","QZKDRLZSJSWQPS-RMPHRYRLSA-N","CC(=O)O[C@H]1[C@H](O[C@@H]2OC(C)(C)O[C@H]12)[C@H]3COC(C)(C)O3","-1.5229","0.0","1","G1","302.32300000000004","0.9459999999999993","69.15600000000005","21.0","7.0","0.0","7.0","2.0","120.0","0.0","3.0","3.0","3.0","72.45000000000002","123.30879853148278","1.7669203352360854","433.0384601061334"
"B-2536","2-cyclopenta[c]pyran-4-carboxylic acid, 1-(-d-g","InChI=1S/C17H26O10/c1-6-9(19)3-7-8(15(23)24-2)5-25-16(11(6)7)27-17-14(22)13(21)12(20)10(4-18)26-17/h5-7,9-14,16-22H,3-4H2,1-2H3/t6-,7+,9-,10+,11+,12+,13-,14+,16-,17-/m0/s1","AMBQHHVBBHTQBF-UOUCRYGSSA-N","COC(=O)C1=CO[C@@H](O[C@@H]2O[C@H](CO)[C@@H](O)[C@H](O)[C@H]2O)[C@@H]3[C@@H](C)[C@@H](O)C[C@H]13","-0.5911","0.0","1","G1","390.3850000000001","-2.1507999999999976","86.59200000000003","27.0","10.0","5.0","10.0","4.0","154.0","0.0","2.0","3.0","3.0","155.14000000000001","155.45810014445468","1.7990697171216272","578.0614322857565"