"ID","Name","InChI","InChIKey","SMILES","Solubility","SD","Ocurrences","Group","MolWt","MolLogP","MolMR","HeavyAtomCount","NumHAcceptors","NumHDonors","NumHeteroatoms","NumRotatableBonds","NumValenceElectrons","NumAromaticRings","NumSaturatedRings","NumAliphaticRings","RingCount","TPSA","LabuteASA","BalabanJ","BertzCT"
"B-1506","quinoline, decahydro-","InChI=1S/C9H17N/c1-2-6-9-8(4-1)5-3-7-10-9/h8-10H,1-7H2/t8-,9+/m1/s1","POTIYWUALSJREP-BDAKNGLRSA-N","C1CC[C@@H]2NCCC[C@H]2C1","-1.0831","0.0","1","G1","139.242","1.9286","42.98270000000001","10.0","1.0","1.0","1.0","0.0","58.0","0.0","2.0","2.0","2.0","12.03","63.19698781955201","1.9253677344386608","85.29589375350572"
"B-1508","9,10-dihydrophenanthrene","InChI=1S/C14H12/c1-3-7-13-11(5-1)9-10-12-6-2-4-8-14(12)13/h1-8H,9-10H2","XXPBFNVKTVJZKF-UHFFFAOYSA-N","C1Cc2ccccc2c3ccccc13","-4.6347","0.0","1","G1","180.25","3.452200000000002","59.28600000000003","14.0","0.0","0.0","0.0","0.0","68.0","2.0","0.0","1.0","3.0","0.0","84.21255040082498","2.2875830783649636","423.46945595723986"
"B-1509","benzoic acid, 2-benzoylhydrazide","InChI=1S/C14H12N2O2/c17-13(11-7-3-1-4-8-11)15-16-14(18)12-9-5-2-6-10-12/h1-10H,(H,15,17)(H,16,18)","GRRIYLZJLGTQJX-UHFFFAOYSA-N","O=C(NNC(=O)c1ccccc1)c2ccccc2","-1.5883","0.0","1","G1","240.26200000000003","1.7613999999999999","67.81640000000003","18.0","2.0","2.0","4.0","2.0","90.0","2.0","0.0","0.0","2.0","58.2","104.61128614189282","1.9296630435110773","486.7351541205121"
"B-1511","phosphoric acid, diethyl propyl ester","InChI=1S/C7H17O4P/c1-4-7-11-12(8,9-5-2)10-6-3/h4-7H2,1-3H3","IHPUVAUZMHQZSK-UHFFFAOYSA-N","CCCO[P](=O)(OCC)OCC","0.4063","0.0","1","G1","196.18299999999996","2.594100000000001","47.10150000000003","12.0","4.0","0.0","5.0","7.0","74.0","0.0","0.0","0.0","0.0","44.760000000000005","73.81915007720491","3.8988495245519545","138.34180215676218"
"B-1512","tributylphosphine oxide","InChI=1S/C12H27OP/c1-4-7-10-14(13,11-8-5-2)12-9-6-3/h4-12H2,1-3H3","MNZAKDODWSQONA-UHFFFAOYSA-N","CCCC[P](=O)(CCCC)CCCC","-0.5932","0.0","1","G1","218.3209999999999","4.749800000000005","66.93150000000006","14.0","1.0","0.0","2.0","9.0","86.0","0.0","0.0","0.0","0.0","17.07","90.04321418628562","3.9659458850842926","137.17533939802803"
"B-1513","diethyl glutarate","InChI=1S/C9H16O4/c1-3-12-8(10)6-5-7-9(11)13-4-2/h3-7H2,1-2H3","OUWSNHWQZPEFEX-UHFFFAOYSA-N","CCOC(=O)CCCC(=O)OCC","-1.3297","0.0","1","G1","188.22299999999998","1.2829000000000002","47.117000000000026","13.0","4.0","0.0","4.0","6.0","76.0","0.0","0.0","0.0","0.0","52.60000000000001","78.2089226021037","3.334857361032243","146.99763683370963"
"B-1515","calcium methionate","InChI=1S/CH4O6S2.Ca/c2-8(3,4)1-9(5,6)7;/h1H2,(H,2,3,4)(H,5,6,7);/q;+2/p-2","RPHZRUDLEUBFCM-UHFFFAOYSA-L","[Ca++].[O-][S](=O)(=O)C[S]([O-])(=O)=O","0.1255","0.0","1","G1","214.23299999999998","-2.3465","30.0154","10.0","6.0","0.0","9.0","2.0","56.0","0.0","0.0","0.0","0.0","114.39999999999998","88.11229104313496","0.0","240.869677188533"
"B-1516","4-penten-1-ol","InChI=1S/C5H10O/c1-2-3-4-5-6/h2,6H,1,3-5H2","LQAVWYMTUMSFBE-UHFFFAOYSA-N","OCCCC=C","-0.1793","0.014649999999999996","2","G3","86.134","0.9449","26.51679999999999","6.0","1.0","1.0","1.0","3.0","36.0","0.0","0.0","0.0","0.0","20.23","38.303650205427736","2.4884037718761123","32.919684538544"
"B-1517","4,4'-oxydi-2-butanol","InChI=1S/C8H18O3/c1-7(9)3-5-11-6-4-8(2)10/h7-10H,3-6H2,1-2H3","AFSYRVDDZGJTIL-UHFFFAOYSA-N","CC(O)CCOCCC(C)O","0.7899","0.0","1","G1","162.229","0.5448","43.414600000000014","11.0","3.0","2.0","3.0","6.0","68.0","0.0","0.0","0.0","0.0","49.69","67.9958585625047","2.909205095488745","71.40635591286735"
"B-1518","1,12-dodecanedicarboxylic acid","InChI=1S/C14H26O4/c15-13(16)11-9-7-5-3-1-2-4-6-8-10-12-14(17)18/h1-12H2,(H,15,16)(H,17,18)","HQHCYKULIHKCEB-UHFFFAOYSA-N","OC(=O)CCCCCCCCCCCCC(O)=O","-3.1112","0.0","1","G1","258.35799999999995","3.836800000000003","70.67560000000005","18.0","2.0","2.0","4.0","13.0","106.0","0.0","0.0","0.0","0.0","74.6","109.39501021946505","2.985815595945486","201.8338811517707"
"B-1519","1,3-dioxolane, 2-(1-methylethyl)-","InChI=1S/C6H12O2/c1-5(2)6-7-3-4-8-6/h5-6H,3-4H2,1-2H3","SMYRHRFGKYUCFB-UHFFFAOYSA-N","CC(C)C1OCCO1","-0.0651","0.0","1","G1","116.16","1.0152999999999999","30.529999999999983","8.0","2.0","0.0","2.0","1.0","48.0","0.0","1.0","1.0","1.0","18.46","49.785220905297116","2.242040082092553","64.92878689342032"
"B-1520","pyrimidine, 2-(methylthio)-","InChI=1S/C5H6N2S/c1-8-5-6-3-2-4-7-5/h2-4H,1H3","FOEMIZSFFWGXHX-UHFFFAOYSA-N","CSc1ncccn1","-0.402","0.0","1","G1","126.18399999999998","1.1985","33.813","8.0","3.0","0.0","3.0","1.0","42.0","1.0","0.0","0.0","1.0","25.78","52.358751221151834","2.8320858350070908","151.77465843030146"
"B-1521","2,6-dimethyl-1,3-dioxan-4-ol acetate","InChI=1S/C8H14O4/c1-5-4-8(11-6(2)9)12-7(3)10-5/h5,7-8H,4H2,1-3H3","PHMNXPYGVPEQSJ-UHFFFAOYSA-N","CC1CC(OC(C)O1)OC(C)=O","0.759","0.0","1","G1","174.19599999999997","1.047","41.26500000000001","12.0","4.0","0.0","4.0","1.0","70.0","0.0","1.0","1.0","1.0","44.760000000000005","71.79017246364099","2.384560851721994","158.44079551951012"
"B-1522","1h-purine-2,6-dione, 3,7-dihydro-1,3,8-trimethyl","InChI=1S/C8H10N4O2/c1-4-9-5-6(10-4)11(2)8(14)12(3)7(5)13/h1-3H3,(H,9,10)","WZBKGWBHAPBSBF-UHFFFAOYSA-N","CN1C(=O)N(C)c2nc(C)[nH]c2C1=O","-0.7276","0.0","1","G1","194.194","-0.7312800000000006","51.31270000000001","14.0","5.0","1.0","6.0","0.0","74.0","2.0","0.0","0.0","2.0","72.68","78.81898553155402","3.1743854173727075","616.5285919942219"
"B-1523","1h-purine-2,6-dione, 3,7-dihydro-1,3,7,8-tetrame","InChI=1S/C9H12N4O2/c1-5-10-7-6(11(5)2)8(14)13(4)9(15)12(7)3/h1-4H3","LFHHOHMIVKIHMG-UHFFFAOYSA-N","CN1C(=O)N(C)c2nc(C)n(C)c2C1=O","-1.4493","0.0","1","G1","208.22099999999998","-0.7208800000000009","55.93300000000002","15.0","6.0","0.0","6.0","0.0","80.0","2.0","0.0","0.0","2.0","61.82","85.39389913254594","3.225307810144424","659.2728980586446"
"B-1524","l-tyrosine, n-acetyl-, ethyl ester","InChI=1S/C13H17NO4/c1-3-18-13(17)12(14-9(2)15)8-10-4-6-11(16)7-5-10/h4-7,12,16H,3,8H2,1-2H3,(H,14,15)/t12-/m0/s1","SKAWDTAMLOJQNK-LBPRGKRZSA-N","CCOC(=O)[C@H](Cc1ccc(O)cc1)NC(C)=O","-1.8586","0.0","1","G1","251.282","1.0025","66.04850000000003","18.0","4.0","2.0","5.0","5.0","98.0","1.0","0.0","0.0","1.0","75.63","105.7666832856717","2.736963200997206","413.50435010953953"
"B-1525","methoproptryne","InChI=1S/C11H21N5OS/c1-8(2)13-10-14-9(12-6-5-7-17-3)15-11(16-10)18-4/h8H,5-7H2,1-4H3,(H2,12,13,14,15,16)","DDUIUBPJPOKOMV-UHFFFAOYSA-N","COCCCNc1nc(NC(C)C)nc(SC)n1","-2.9284","0.0","1","G1","271.39","1.8621999999999999","75.34940000000005","18.0","7.0","2.0","7.0","8.0","102.0","1.0","0.0","0.0","1.0","71.96000000000001","112.34626359959756","2.6443398442437664","361.2868506482141"
"B-1526","2,4-bis((3-methoxypropyl)amino)-6-(methylthio)-s","InChI=1S/C12H23N5O2S/c1-18-8-4-6-13-10-15-11(14-7-5-9-19-2)17-12(16-10)20-3/h4-9H2,1-3H3,(H2,13,14,15,16,17)","FBMDQVBGIYSDTI-UHFFFAOYSA-N","COCCCNc1nc(NCCCOC)nc(SC)n1","-3.4792","0.0","1","G1","301.416","1.4903000000000002","81.57340000000003","20.0","8.0","2.0","8.0","11.0","114.0","1.0","0.0","0.0","1.0","81.19","123.82475094350104","2.5085339422222166","350.6153563417272"
"B-1527","lorazepam","InChI=1S/C15H10Cl2N2O2/c16-8-5-6-12-10(7-8)13(19-15(21)14(20)18-12)9-3-1-2-4-11(9)17/h1-7,15,21H,(H,18,20)","DIWRORZWFLOCLC-UHFFFAOYSA-N","OC1N=C(c2ccccc2Cl)c3cc(Cl)ccc3NC1=O","-3.6036","0.0","1","G1","321.163","3.101300000000001","83.17950000000002","21.0","3.0","2.0","6.0","1.0","106.0","2.0","0.0","1.0","3.0","61.690000000000005","130.58496549069287","2.26892535252096","759.0888790908208"
"B-1528","androst-5-en-17-one,3-(acetyloxy),3-beta-","InChI=1S/C21H30O3/c1-13(22)24-15-8-10-20(2)14(12-15)4-5-16-17-6-7-19(23)21(17,3)11-9-18(16)20/h4,15-18H,5-12H2,1-3H3/t15-,16-,17-,18-,20-,21-/m0/s1","NCMZQTLCXHGLOK-ZKHIMWLXSA-N","CC(=O)O[C@H]1CC[C@]2(C)[C@H]3CC[C@@]4(C)[C@@H](CCC4=O)[C@@H]3CC=C2C1","-4.4584","0.0","1","G1","330.4680000000001","4.450000000000004","92.26400000000005","24.0","3.0","0.0","3.0","1.0","132.0","0.0","3.0","4.0","4.0","43.370000000000005","144.76175509905497","1.5973719061421663","606.2051148204893"
"B-1529","kebuzone","InChI=1S/C19H18N2O3/c1-14(22)12-13-17-18(23)20(15-8-4-2-5-9-15)21(19(17)24)16-10-6-3-7-11-16/h2-11,17H,12-13H2,1H3","LGYTZKPVOAIUKX-UHFFFAOYSA-N","CC(=O)CCC1C(=O)N(N(C1=O)c2ccccc2)c3ccccc3","-3.2676","0.0","1","G1","322.36400000000003","2.966800000000001","91.26100000000004","24.0","3.0","0.0","5.0","5.0","122.0","2.0","1.0","1.0","3.0","57.690000000000005","140.01163063358106","2.0078605801681197","701.1960723848598"
"B-1530","phosphonic acid, (trichloromethyl)-, diethyl est","InChI=1S/C5H10Cl3O3P/c1-3-10-12(9,11-4-2)5(6,7)8/h3-4H2,1-2H3","RVAQSYWDOSHWGP-UHFFFAOYSA-N","CCO[P](=O)(OCC)C(Cl)(Cl)Cl","-1.7541","0.0","1","G1","255.465","3.5802000000000023","51.14850000000003","12.0","3.0","0.0","7.0","4.0","74.0","0.0","0.0","0.0","0.0","35.53","86.79884904142261","4.508862526355485","169.26748332105768"
"B-1532","allylidenediacetate","InChI=1S/C7H10O4/c1-4-7(10-5(2)8)11-6(3)9/h4,7H,1H2,2-3H3","TXECTBGVEUDNSL-UHFFFAOYSA-N","CC(=O)OC(OC(C)=O)C=C","-1.2449","0.0","1","G1","158.153","0.6247","37.517","11.0","4.0","0.0","4.0","3.0","62.0","0.0","0.0","0.0","0.0","52.6","64.78943534112624","3.8531250010011684","157.27938714610153"
"B-1533","acetamide, n,n'-1,2-ethanediylbis-","InChI=1S/C6H12N2O2/c1-5(9)7-3-4-8-6(2)10/h3-4H2,1-2H3,(H,7,9)(H,8,10)","WNYIBZHOMJZDKN-UHFFFAOYSA-N","CC(=O)NCCNC(C)=O","0.6755","0.0","1","G1","144.17399999999998","-0.7414000000000003","37.3674","10.0","2.0","2.0","4.0","3.0","58.0","0.0","0.0","0.0","0.0","58.2","59.9867301671162","3.0550899395377584","117.70950594454669"
"B-1536","benzenemethanol, 4-bromo-","InChI=1S/C7H7BrO/c8-7-3-1-6(5-9)2-4-7/h1-4,9H,5H2","VEDDBHYQWFOITD-UHFFFAOYSA-N","OCc1ccc(Br)cc1","-1.9295","0.0","1","G1","187.036","1.9413999999999998","40.06480000000002","9.0","1.0","1.0","2.0","1.0","48.0","1.0","0.0","0.0","1.0","20.23","62.45812659173094","2.881555877646136","180.61256853719752"
"B-1537","p-chlorobenzyl alcohol","InChI=1S/C7H7ClO/c8-7-3-1-6(5-9)2-4-7/h1-4,9H,5H2","PTHGDVCPCZKZKR-UHFFFAOYSA-N","OCc1ccc(Cl)cc1","-1.7561","0.0","1","G1","142.585","1.8322999999999998","37.374800000000015","9.0","1.0","1.0","2.0","1.0","48.0","1.0","0.0","0.0","1.0","20.23","58.89384521297126","2.881555877646136","180.61256853719752"
"B-1539","2,4,6-triethoxy-s-triazine","InChI=1S/C9H15N3O3/c1-4-13-7-10-8(14-5-2)12-9(11-7)15-6-3/h4-6H2,1-3H3","ZLKYBXDNXFQYDL-UHFFFAOYSA-N","CCOc1nc(OCC)nc(OCC)n1","-1.4838","0.0","1","G1","213.23699999999997","1.0676999999999999","53.33400000000003","15.0","6.0","0.0","6.0","6.0","84.0","1.0","0.0","0.0","1.0","66.36","88.62063543723677","2.8597435823891235","246.6664884454235"
"B-1540","3-nitrofluoranthene","InChI=1S/C16H9NO2/c18-17(19)15-9-8-13-11-5-2-1-4-10(11)12-6-3-7-14(15)16(12)13/h1-9H","PIHGQKMEAMSUNA-UHFFFAOYSA-N","[O-][N+](=O)c1ccc2c3ccccc3c4cccc1c24","-7.1031","0.0","1","G1","247.253","4.395400000000002","75.03240000000002","19.0","2.0","0.0","3.0","1.0","90.0","3.0","0.0","1.0","4.0","43.14","108.81730642626677","2.229657655500842","823.2419023615514"
"B-1541","methacycline","InChI=1S/C22H22N2O8/c1-7-8-5-4-6-9(25)11(8)16(26)12-10(7)17(27)14-15(24(2)3)18(28)13(21(23)31)20(30)22(14,32)19(12)29/h4-6,10,14-15,17,25-27,31-32H,1,23H2,2-3H3/b21-13-/t10-,14-,15+,17+,22+/m1/s1","GLFJCEVWKWQSJP-ISFNZQQKSA-N","CN(C)[C@H]1[C@@H]2[C@@H](O)[C@@H]3C(=C)c4cccc(O)c4C(=C3C(=O)[C@]2(O)C(=O)\C(=C(N)/O)C1=O)O","-1.768","0.0","1","G1","442.4240000000002","-0.5944999999999991","110.96440000000007","32.0","10.0","6.0","10.0","1.0","168.0","1.0","2.0","3.0","4.0","181.61999999999998","181.73963382102966","2.0557239202181146","1176.3709411341242"
"B-1542","amidothion","InChI=1S/C7H16NO4PS2/c1-10-5-4-8-7(9)6-15-13(14,11-2)12-3/h4-6H2,1-3H3,(H,8,9)","GDTZUQIYUMGJRT-UHFFFAOYSA-N","COCCNC(=O)CS[P](=S)(OC)OC","-1.1356","0.0","1","G1","273.31600000000003","0.9995","65.64670000000004","15.0","6.0","1.0","8.0","8.0","90.0","0.0","0.0","0.0","0.0","56.790000000000006","99.14587617995114","3.7430855075536567","231.03007451434007"
"B-1543","demeton-s-methyl","InChI=1S/C6H15O3PS2/c1-4-11-5-6-12-10(7,8-2)9-3/h4-6H2,1-3H3","WEBQKRLKWNIYKK-UHFFFAOYSA-N","CCSCCS[P](=O)(OC)OC","-1.8438","0.0","1","G1","230.29099999999997","2.8736000000000015","57.08150000000004","12.0","5.0","0.0","6.0","7.0","74.0","0.0","0.0","0.0","0.0","35.53","82.2487971490232","3.5223947479401634","145.72862410467505"
"B-1545","hexanedioic acid, 2,3,3-trimethyl-","InChI=1S/C9H16O4/c1-6(8(12)13)9(2,3)5-4-7(10)11/h6H,4-5H2,1-3H3,(H,10,11)(H,12,13)","YBAXNZSTHONUAE-UHFFFAOYSA-N","CC(C(O)=O)C(C)(C)CCC(O)=O","-1.5265","0.0","1","G1","188.22299999999996","1.5981","47.45060000000002","13.0","2.0","2.0","4.0","5.0","76.0","0.0","0.0","0.0","0.0","74.6","77.57029964748199","4.212011338632231","207.660241301476"
"B-1546","n-(hydroxymethyl)acrylamide","InChI=1S/C4H7NO2/c1-2-4(7)5-3-6/h2,6H,1,3H2,(H,5,7)","CNCOEDDPFOAUMB-UHFFFAOYSA-N","OCNC(=O)C=C","0.8101","0.0","1","G1","101.10499999999999","-0.7616","25.425499999999996","7.0","2.0","2.0","3.0","2.0","40.0","0.0","0.0","0.0","0.0","49.33","41.65009237468293","3.172899533850818","79.75898006442378"
"B-1547","butanamide, n,n'-1,2-ethanediylbis-","InChI=1S/C10H20N2O2/c1-3-5-9(13)11-7-8-12-10(14)6-4-2/h3-8H2,1-2H3,(H,11,13)(H,12,14)","AIWAFUBJIYAIGI-UHFFFAOYSA-N","CCCC(=O)NCCNC(=O)CCC","-0.6222","0.0","1","G1","200.28199999999995","0.8189999999999995","55.835400000000035","14.0","2.0","2.0","4.0","7.0","82.0","0.0","0.0","0.0","0.0","58.2","85.44649862470264","3.2823051857661723","160.96081175542733"
"B-1548","6-undecanone","InChI=1S/C11H22O/c1-3-5-7-9-11(12)10-8-6-4-2/h3-10H2,1-2H3","ZPQAKYPOZRXKFA-UHFFFAOYSA-N","CCCCCC(=O)CCCCC","-3.5322","0.0","1","G1","170.29599999999996","3.7161000000000026","53.29100000000004","12.0","1.0","0.0","1.0","8.0","72.0","0.0","0.0","0.0","0.0","17.07","76.5501942718394","3.1032830489797623","95.57174002125652"
"B-1549","butyl nitrate","InChI=1S/C4H9NO3/c1-2-3-4-8-5(6)7/h2-4H2,1H3","QQHZPQUHCAKSOL-UHFFFAOYSA-N","CCCCO[N+]([O-])=O","-2.0268","0.0","1","G1","119.11999999999999","0.9948","27.85439999999999","8.0","3.0","0.0","4.0","4.0","48.0","0.0","0.0","0.0","0.0","52.37","47.55463682250403","2.822354554248032","73.68367439558378"
"B-1550","3-hexyne","InChI=1S/C6H10/c1-3-5-6-4-2/h3-4H2,1-2H3","DQQNMIPXXNPGCV-UHFFFAOYSA-N","CCC#CCC","-2.1675","0.08875","2","G3","82.14599999999999","1.8098","28.357999999999986","6.0","0.0","0.0","0.0","0.0","34.0","0.0","0.0","0.0","0.0","0.0","39.56318699167186","2.8986676180251862","53.84283310353014"
"B-1551","n-nitrosopyrrolidine","InChI=1S/C4H8N2O/c7-5-6-3-1-2-4-6/h1-4H2","WNYADZVDBIBLJJ-UHFFFAOYSA-N","O=NN1CCCC1","0.9995","0.0","1","G1","100.12100000000001","0.7636000000000001","26.60199999999999","7.0","2.0","0.0","3.0","1.0","40.0","0.0","1.0","1.0","1.0","32.67","42.252947892158964","2.261812524676334","68.09004635215048"
"B-1552","n-nitrosohexamethyleneimine","InChI=1S/C6H12N2O/c9-7-8-5-3-1-2-4-6-8/h1-6H2","UZMVSVHUTOAPTD-UHFFFAOYSA-N","O=NN1CCCCCC1","-1.0006","0.0","1","G1","128.175","1.5438","35.836","9.0","2.0","0.0","3.0","1.0","52.0","0.0","1.0","1.0","1.0","32.67","54.98283212095218","2.2587454754143512","87.05865002596161"
"B-1553","2,3,6-trichlorophenol","InChI=1S/C6H3Cl3O/c7-3-1-2-4(8)6(10)5(3)9/h1-2,10H","XGCHAIDDPMFRLJ-UHFFFAOYSA-N","Oc1c(Cl)ccc(Cl)c1Cl","-2.6422","0.0","1","G1","197.44799999999998","3.3523999999999994","43.13680000000001","10.0","1.0","1.0","4.0","0.0","54.0","1.0","0.0","0.0","1.0","20.23","73.135435552338","3.3421538077705124","232.41499587006638"
"B-1555","2-azacyclo-nonanone","InChI=1S/C8H15NO/c10-8-6-4-2-1-3-5-7-9-8/h1-7H2,(H,9,10)","YDLSUFFXJYEVHW-UHFFFAOYSA-N","O=C1CCCCCCCN1","0.6329","0.0","1","G1","141.21400000000003","1.4568","40.71170000000001","10.0","1.0","1.0","2.0","0.0","58.0","0.0","1.0","1.0","1.0","29.1","61.999398958728385","2.209817908590539","99.82521876648653"
"B-1556","2,3-dihydro-1,2-benzisothiazole-1,1-dioxide","InChI=1S/C7H7NO2S/c9-11(10)7-4-2-1-3-6(7)5-8-11/h1-4,8H,5H2","GVYVHZKTSVDMNT-UHFFFAOYSA-N","O=[S]1(=O)NCc2ccccc12","-1.5208","0.0","1","G1","169.205","0.4785000000000001","40.467500000000015","11.0","2.0","1.0","4.0","0.0","58.0","1.0","0.0","1.0","2.0","46.17","65.10115215638747","2.7459859303079557","383.18197660893964"
"B-1558","n-benzyl-n-methylnitrosoamine","InChI=1S/C8H10N2O/c1-10(9-11)7-8-5-3-2-4-6-8/h2-6H,7H2,1H3","NGXUJKBJBFLCAR-UHFFFAOYSA-N","CN(Cc1ccccc1)N=O","-1.5224","0.0","1","G1","150.18099999999995","1.7997999999999998","43.70400000000003","11.0","2.0","0.0","3.0","3.0","58.0","1.0","0.0","0.0","1.0","32.67","65.585989022959","2.5732138592946923","222.79348430668873"
"B-1559","2h-1-benzopyran-2-one, 4-bromo-","InChI=1S/C9H5BrO2/c10-7-5-9(11)12-8-4-2-1-3-6(7)8/h1-5H","CSMSWYXPXRIHBY-UHFFFAOYSA-N","BrC1=CC(=O)Oc2ccccc12","-1.6533","0.0","1","G1","225.041","2.5555000000000003","50.18400000000001","12.0","2.0","0.0","3.0","0.0","60.0","2.0","0.0","0.0","2.0","30.21","76.94695418092634","2.9876120401947106","473.1573842845486"
"B-1560","2,3,4,5-tetrachloroanisole","InChI=1S/C7H4Cl4O/c1-12-4-2-3(8)5(9)7(11)6(4)10/h2H,1H3","FUUHMSUPRUNWRQ-UHFFFAOYSA-N","COc1cc(Cl)c(Cl)c(Cl)c1Cl","-5.2605","0.0","1","G1","245.92000000000002","4.308800000000001","53.03400000000001","12.0","1.0","0.0","5.0","1.0","66.0","1.0","0.0","0.0","1.0","9.23","90.12295537092713","3.387046329011766","310.7649525073721"
"B-1561","p-methylphenoxyacetic acid","InChI=1S/C9H10O3/c1-7-2-4-8(5-3-7)12-6-9(10)11/h2-5H,6H2,1H3,(H,10,11)","SFTDDFBJWUWKMN-UHFFFAOYSA-N","Cc1ccc(OCC(O)=O)cc1","-2.1414","0.0","1","G1","166.17600000000002","1.4584199999999998","44.30980000000002","12.0","2.0","1.0","3.0","3.0","64.0","1.0","0.0","0.0","1.0","46.53","70.59553054443343","2.5298890742894535","263.60706625991145"
"B-1563","benzene, 1,2,3,4-tetrachloro-5,6-dimethoxy-","InChI=1S/C8H6Cl4O2/c1-13-7-5(11)3(9)4(10)6(12)8(7)14-2/h1-2H3","NCYHCGGUQGDEQW-UHFFFAOYSA-N","COc1c(Cl)c(Cl)c(Cl)c(Cl)c1OC","-5.2394","0.0","1","G1","275.946","4.317400000000001","59.58600000000002","14.0","2.0","0.0","6.0","2.0","78.0","1.0","0.0","0.0","1.0","18.46","101.60144271483063","3.5656858355463434","330.0942913293867"
"B-1564","cyolane","InChI=1S/C7H14NO3PS2/c1-3-10-12(9,11-4-2)8-7-13-5-6-14-7/h3-6H2,1-2H3","ILBONRFSLATCRE-UHFFFAOYSA-N","CCO[P](=O)(OCC)N=C1SCCS1","-2.5941","0.0","1","G1","255.301","3.0035000000000016","63.209500000000034","14.0","5.0","0.0","7.0","5.0","82.0","0.0","1.0","1.0","1.0","47.89","92.81085534839019","2.65940603076284","241.3194622955766"
"B-1566","phosphoramidic acid, (4-methyl-1,3-dithiolan-2-y","InChI=1S/C8H16NO3PS2/c1-4-11-13(10,12-5-2)9-8-14-6-7(3)15-8/h7H,4-6H2,1-3H3","LTQSAUHRSCMPLD-UHFFFAOYSA-N","CCO[P](=O)(OCC)N=C1SCC(C)S1","-3.6744","0.0","1","G1","269.328","3.392000000000002","67.80450000000003","15.0","5.0","0.0","7.0","5.0","88.0","0.0","1.0","1.0","1.0","47.89","99.1757974627868","2.6860586746436788","275.06034706719015"
"B-1569","medrogestone","InChI=1S/C23H32O2/c1-14-12-17-18(21(3)9-6-16(25)13-20(14)21)7-11-23(5)19(17)8-10-22(23,4)15(2)24/h12-13,17-19H,6-11H2,1-5H3","HCFSGRMEEXUOSS-UHFFFAOYSA-N","CC(=O)C1(C)CCC2C3C=C(C)C4=CC(=O)CCC4(C)C3CCC12C","-5.2721","0.03894999999999982","2","G3","340.5070000000001","5.279700000000005","100.02100000000006","25.0","2.0","0.0","2.0","1.0","136.0","0.0","2.0","4.0","4.0","34.14","151.68849106615704","1.7971692588605246","713.6044349377288"
"B-1570","methylphosphonic acid","InChI=1S/CH5O3P/c1-5(2,3)4/h1H3,(H2,2,3,4)","YACKEPLHDIMKIO-UHFFFAOYSA-N","C[P](O)(O)=O","-0.6813","0.0","1","G1","96.02199999999999","-0.20610000000000006","17.968100000000003","5.0","1.0","2.0","4.0","0.0","32.0","0.0","0.0","0.0","0.0","57.53","29.790658948569433","3.472066495600119","53.028652363530185"