"ID","Name","InChI","InChIKey","SMILES","Solubility","SD","Ocurrences","Group","MolWt","MolLogP","MolMR","HeavyAtomCount","NumHAcceptors","NumHDonors","NumHeteroatoms","NumRotatableBonds","NumValenceElectrons","NumAromaticRings","NumSaturatedRings","NumAliphaticRings","RingCount","TPSA","LabuteASA","BalabanJ","BertzCT"
"B-2633","thiophanate-methyl","InChI=1S/C12H14N4O4S2/c1-19-11(17)15-9(21)13-7-5-3-4-6-8(7)14-10(22)16-12(18)20-2/h3-6H,1-2H3,(H2,13,15,17,21)(H2,14,16,18,22)","QGHREAKMXXNCOA-UHFFFAOYSA-N","COC(=O)NC(=S)Nc1ccccc1NC(=S)NC(=O)OC","-4.1097","0.0","1","G1","342.4020000000001","1.7921999999999998","89.96480000000001","22.0","6.0","4.0","10.0","2.0","118.0","1.0","0.0","0.0","1.0","100.72000000000001","137.08819969381986","2.7297769021233167","543.2439175521262"
"B-2634","octanedioic acid, 3,3,6,6-tetramethyl-","InChI=1S/C12H22O4/c1-11(2,7-9(13)14)5-6-12(3,4)8-10(15)16/h5-8H2,1-4H3,(H,13,14)(H,15,16)","XCPSWBNEOGUWCT-UHFFFAOYSA-N","CC(C)(CCC(C)(C)CC(O)=O)CC(O)=O","-3.1319","0.0","1","G1","230.30399999999997","2.7684000000000006","61.301600000000036","16.0","2.0","2.0","4.0","7.0","94.0","0.0","0.0","0.0","0.0","74.6","96.66512599067183","4.211230260443652","238.19232562657194"
"B-2635","n-hexyl nicotinoate","InChI=1S/C12H17NO2/c1-2-3-4-5-9-15-12(14)11-7-6-8-13-10-11/h6-8,10H,2-5,9H2,1H3","RVYGVBZGSFLJKH-UHFFFAOYSA-N","CCCCCCOC(=O)c1cccnc1","-2.6538","0.0","1","G1","207.27300000000002","2.8187000000000015","58.66150000000004","15.0","3.0","0.0","3.0","6.0","82.0","1.0","0.0","0.0","1.0","39.19","90.48071323077036","2.195736743827031","284.9334103555799"
"B-2636","phosphonic acid, (1,6-hexanediylbis(nitrilobis(m","InChI=1S/C10H28N2O12P4/c13-25(14,15)7-11(8-26(16,17)18)5-3-1-2-4-6-12(9-27(19,20)21)10-28(22,23)24/h1-10H2,(H2,13,14,15)(H2,16,17,18)(H2,19,20,21)(H2,22,23,24)","KIDJHPQACZGFTI-UHFFFAOYSA-N","O[P](O)(=O)CN(CCCCCCN(C[P](O)(O)=O)C[P](O)(O)=O)C[P](O)(O)=O","-1.5161","0.0","1","G1","492.2320000000001","-0.30840000000000045","99.52440000000001","28.0","6.0","8.0","18.0","15.0","170.0","0.0","0.0","0.0","0.0","236.59999999999997","161.7490290807653","4.410264171931974","546.7908581305372"
"B-2637","1h-purin-8-amine, n,n-dimethyl-","InChI=1S/C7H9N5/c1-12(2)7-10-5-3-8-4-9-6(5)11-7/h3-4H,1-2H3,(H,8,9,10,11)","WNLBOWJFJNZYPN-UHFFFAOYSA-N","CN(C)c1[nH]c2cncnc2n1","-1.3885","0.0","1","G1","163.18399999999997","0.4188999999999999","46.010700000000014","12.0","4.0","1.0","5.0","1.0","62.0","2.0","0.0","0.0","2.0","57.7","69.47088991408259","2.620326401241111","358.35099497901376"
"B-2638","pteridine, 2,6,7-trimethyl-","InChI=1S/C9H10N4/c1-5-6(2)12-9-8(11-5)4-10-7(3)13-9/h4H,1-3H3","ZGWOCNDIGLJDDX-UHFFFAOYSA-N","Cc1ncc2nc(C)c(C)nc2n1","-1.1442","0.0","1","G1","174.207","1.34506","49.33900000000001","13.0","4.0","0.0","4.0","0.0","66.0","2.0","0.0","0.0","2.0","51.56","76.08648591820804","2.81148314052133","464.3665095200523"
"B-2639","d-glucose, (aminocarbonyl)hydrazone","InChI=1S/C7H15N3O6/c8-7(16)10-9-1-3(12)5(14)6(15)4(13)2-11/h1,3-6,11-15H,2H2,(H3,8,10,16)/t3-,4+,5+,6+/m0/s1","NOUQGOYNEGWDCZ-SLPGGIOYSA-N","NC(=O)NN=C[C@H](O)[C@@H](O)[C@H](O)[C@H](O)CO","-1.0041","0.0","1","G1","237.21200000000002","-3.9236","52.32410000000002","16.0","7.0","7.0","9.0","6.0","94.0","0.0","0.0","0.0","0.0","168.63","90.81680596194887","4.2091137290224685","248.27666252784255"
"B-2640","5-pyrimidinecarboxylic acid, 1,2,3,4-tetrahydro-","InChI=1S/C5H4N2O4/c8-3-2(4(9)10)1-6-5(11)7-3/h1H,(H,9,10)(H2,6,7,8,11)","ZXYAAVBXHKCJJB-UHFFFAOYSA-N","OC(=O)C1=CNC(=O)NC1=O","-1.9381","0.0","1","G1","156.09699999999998","-1.2386000000000001","34.64269999999999","11.0","3.0","3.0","6.0","1.0","58.0","1.0","0.0","0.0","1.0","103.01999999999998","59.514441248113904","3.433954173266979","387.95915808241574"
"B-2641","pronamide","InChI=1S/C12H11Cl2NO/c1-4-12(2,3)15-11(16)8-5-9(13)7-10(14)6-8/h1,5-7H,2-3H3,(H,15,16)","PHNUZKMIPFFYSO-UHFFFAOYSA-N","CC(C)(NC(=O)c1cc(Cl)cc(Cl)c1)C#C","-4.2324","0.0","1","G1","256.13199999999995","3.1350000000000016","66.84020000000002","16.0","1.0","1.0","4.0","2.0","84.0","1.0","0.0","0.0","1.0","29.1","104.93819793515104","2.9422622687262594","440.32683161976377"
"B-2642","triazophos","InChI=1S/C12H16N3O3PS/c1-3-16-19(20,17-4-2)18-12-13-10-15(14-12)11-8-6-5-7-9-11/h5-10H,3-4H2,1-2H3","AMFGTOFWMRQMEM-UHFFFAOYSA-N","CCO[P](=S)(OCC)Oc1ncn(n1)c2ccccc2","-3.9049","0.09855000000000014","2","G3","313.319","2.9436000000000018","79.52400000000003","20.0","7.0","0.0","8.0","7.0","108.0","2.0","0.0","0.0","2.0","58.4","122.49571101278842","2.1450928871860038","580.6433002445386"
"B-2643","naphtho[2,3-c]furan-1(3h)-one, 3,3-dimethyl-","InChI=1S/C14H12O2/c1-14(2)12-8-10-6-4-3-5-9(10)7-11(12)13(15)16-14/h3-8H,1-2H3","RCRSAOBHVMTZFO-UHFFFAOYSA-N","CC1(C)OC(=O)c2cc3ccccc3cc12","-2.9844","0.0","1","G1","212.24800000000002","3.245300000000002","62.389500000000034","16.0","2.0","0.0","2.0","0.0","80.0","2.0","0.0","1.0","3.0","26.3","93.84207228484003","2.3810581534161024","596.7068727688994"
"B-2644","2-methyl-4-bromoacetanilide","InChI=1S/C9H10BrNO/c1-6-5-8(10)3-4-9(6)11-7(2)12/h3-5H,1-2H3,(H,11,12)","IJZSFOIZVXCSFP-UHFFFAOYSA-N","CC(=O)Nc1ccc(Br)cc1C","-1.756","0.0","1","G1","228.08899999999997","2.7159200000000006","53.18270000000002","12.0","1.0","1.0","3.0","1.0","64.0","1.0","0.0","0.0","1.0","29.1","80.10516135197996","2.9348021246299894","309.39688695312145"
"B-2645","acetamide-2-chloro-n-(2,6-dimethylphenyl)-n-((2-","InChI=1S/C15H22ClNO2/c1-11(2)9-19-10-17(14(18)8-16)15-12(3)6-5-7-13(15)4/h5-7,11H,8-10H2,1-4H3","BIQOEDQVNIYWPQ-UHFFFAOYSA-N","CC(C)COCN(C(=O)CCl)c1c(C)cccc1C","-3.6822","0.0","1","G1","283.79900000000004","3.505340000000002","79.77900000000005","19.0","2.0","0.0","4.0","6.0","106.0","1.0","0.0","0.0","1.0","29.54","120.05404937570212","2.934185524729387","411.903792738549"
"B-2646","fenfuram","InChI=1S/C12H11NO2/c1-9-11(7-8-15-9)12(14)13-10-5-3-2-4-6-10/h2-8H,1H3,(H,13,14)","JFSPBVWPKOEZCB-UHFFFAOYSA-N","Cc1occc1C(=O)Nc2ccccc2","-3.3037","0.0","1","G1","201.22500000000002","2.840320000000001","57.840200000000024","15.0","2.0","1.0","3.0","2.0","76.0","2.0","0.0","0.0","2.0","42.24","87.72409510208286","2.1481615627939488","459.48417535343026"
"B-2647","hexanedioic acid, 3-butyl-","InChI=1S/C10H18O4/c1-2-3-4-8(7-10(13)14)5-6-9(11)12/h8H,2-7H2,1H3,(H,11,12)(H,13,14)","SYBIZQPCZZHMNO-UHFFFAOYSA-N","CCCCC(CCC(O)=O)CC(O)=O","-1.3974","0.0","1","G1","202.24999999999997","2.1323","52.13760000000003","14.0","2.0","2.0","4.0","8.0","82.0","0.0","0.0","0.0","0.0","74.6","83.93524176187859","3.831950489575949","188.56101971664077"
"B-2649","cyclopentaneacetic acid, 3-oxo-2-pentyl-, methyl","InChI=1S/C13H22O3/c1-3-4-5-6-11-10(7-8-12(11)14)9-13(15)16-2/h10-11H,3-9H2,1-2H3","KVWWIYGFBYDJQC-UHFFFAOYSA-N","CCCCCC1C(CCC1=O)CC(=O)OC","-2.9076","0.1558983168999999","2","G3","226.31599999999995","2.725100000000001","61.996000000000045","16.0","3.0","0.0","3.0","6.0","92.0","0.0","1.0","1.0","1.0","43.370000000000005","97.54931467665402","2.42257678792301","247.56226150533917"
"B-2650","4(1h)-pteridinone, 6,7-diphenyl-","InChI=1S/C18H12N4O/c23-18-16-17(19-11-20-18)22-15(13-9-5-2-6-10-13)14(21-16)12-7-3-1-4-8-12/h1-11H,(H,19,20,22,23)","UMUYUDSQRKTBKA-UHFFFAOYSA-N","O=C1N=CNc2nc(c3ccccc3)c(nc12)c4ccccc4","-3.1766","0.0","1","G1","300.321","3.0471000000000013","88.82570000000001","23.0","4.0","1.0","5.0","2.0","110.0","4.0","0.0","0.0","4.0","71.53","131.26737008719007","2.0903035735997317","1027.0030755455875"
"B-2651","phenol, 2-iodo-6-methyl-","InChI=1S/C7H7IO/c1-5-3-2-4-6(8)7(5)9/h2-4,9H,1H3","GZZUGNNHSZONTO-UHFFFAOYSA-N","Cc1cccc(I)c1O","-1.8378","0.0","1","G1","234.036","2.3052200000000007","45.560800000000015","9.0","1.0","1.0","2.0","0.0","48.0","1.0","0.0","0.0","1.0","20.23","67.85241710713322","3.2478347337367026","199.9061775999341"
"B-2652","2,5-dichlorodiphenyl ether","InChI=1S/C12H8Cl2O/c13-9-6-7-11(14)12(8-9)15-10-4-2-1-3-5-10/h1-8H","VITXVDNQHXYQSK-UHFFFAOYSA-N","Clc1ccc(Cl)c(Oc2ccccc2)c1","-4.9703","0.0","1","G1","239.10100000000003","4.785700000000002","62.97800000000002","15.0","1.0","0.0","3.0","2.0","76.0","2.0","0.0","0.0","2.0","9.23","98.20857500883123","2.28073295107281","454.43422798064194"
"B-2653","3,4',5-trichlorodiphenyl ether","InChI=1S/C12H7Cl3O/c13-8-1-3-11(4-2-8)16-12-6-9(14)5-10(15)7-12/h1-7H","CCEZFZGXWFJQEF-UHFFFAOYSA-N","Clc1ccc(Oc2cc(Cl)cc(Cl)c2)cc1","-5.5201","0.0","1","G1","273.546","5.4391000000000025","67.98800000000003","16.0","1.0","0.0","4.0","2.0","82.0","2.0","0.0","0.0","2.0","9.23","108.5118412357129","2.2301061936003337","473.8671014776177"
"B-2654","chlormephos","InChI=1S/C5H12ClO2PS2/c1-3-7-9(10,8-4-2)11-5-6/h3-5H2,1-2H3","QGTYWWGEWOBMAK-UHFFFAOYSA-N","CCO[P](=S)(OCC)SCCl","-3.5924","0.0","1","G1","234.70999999999998","3.213400000000002","55.84800000000003","11.0","4.0","0.0","6.0","6.0","68.0","0.0","0.0","0.0","0.0","18.46","81.8943286648809","3.908471949775869","120.66966981975612"
"B-2655","benazolin-ethyl","InChI=1S/C11H10ClNO3S/c1-2-16-9(14)6-13-10-7(12)4-3-5-8(10)17-11(13)15/h3-5H,2,6H2,1H3","WQRCEBAZAUAUQC-UHFFFAOYSA-N","CCOC(=O)CN1C(=O)Sc2cccc(Cl)c12","-3.762","0.0","1","G1","271.7250000000001","2.2795000000000005","67.72800000000002","17.0","5.0","0.0","6.0","3.0","90.0","2.0","0.0","0.0","2.0","48.3","106.38267450324801","2.4940706244968784","616.6943358032489"
"B-2656","acetic acid, (2,4-dinitrophenoxy)-","InChI=1S/C8H6N2O7/c11-8(12)4-17-7-2-1-5(9(13)14)3-6(7)10(15)16/h1-3H,4H2,(H,11,12)","OWEDBRWCJFWVFZ-UHFFFAOYSA-N","OC(=O)COc1ccc(cc1[N+]([O-])=O)[N+]([O-])=O","-1.9369","0.0","1","G1","242.14299999999997","0.9663999999999999","52.8816","17.0","6.0","1.0","9.0","5.0","90.0","1.0","0.0","0.0","1.0","132.81","93.53653987503642","3.0834034339869945","484.7620802594193"
"B-2658","2,4-d, isooctyl ester","InChI=1S/C16H22Cl2O3/c1-3-5-6-12(4-2)10-21-16(19)11-20-15-8-7-13(17)9-14(15)18/h7-9,12H,3-6,10-11H2,1-2H3","QZSFJRIWRPJUOH-UHFFFAOYSA-N","CCCCC(CC)COC(=O)COc1ccc(Cl)cc1Cl","-7.0122","0.0","1","G1","333.255","5.131800000000005","86.22200000000005","21.0","3.0","0.0","5.0","9.0","118.0","1.0","0.0","0.0","1.0","35.53","136.0759692762839","2.329795846341474","449.14827114518977"
"B-2659","hexene - mixture of isomers","InChI=1S/C6H12/c1-3-5-6-4-2/h3,5H,4,6H2,1-2H3/b5-3+","RYPKRALMXUUNKS-HWKANZROSA-N","CCC\C=C\C","-3.2262","0.0","1","G1","84.16199999999999","2.3626000000000005","29.721999999999984","6.0","0.0","0.0","0.0","2.0","36.0","0.0","0.0","0.0","0.0","0.0","39.874358567628335","2.6580999362490196","35.302968908806456"
"B-2660","dipropylene glycol","InChI=1S/C6H14O3/c1-3-5(7)9-6(8)4-2/h5-8H,3-4H2,1-2H3","QYSXYAURTRCDJU-UHFFFAOYSA-N","CCC(O)OC(O)CC","0.8723","0.0","1","G1","134.17499999999998","0.4598","33.68059999999999","9.0","3.0","2.0","3.0","4.0","56.0","0.0","0.0","0.0","0.0","49.69","55.26597433371149","3.2230469044906185","57.323312532452036"
"B-2661","benzenesulfonamide, 4-(mannopyranosylamino)-","InChI=1S/C12H18N2O7S/c13-22(19,20)7-3-1-6(2-4-7)14-12-11(18)10(17)9(16)8(5-15)21-12/h1-4,8-12,14-18H,5H2,(H2,13,19,20)/t8-,9-,10+,11+,12?/m1/s1","RMCYKIOWPVOBJX-IKQSSVLVSA-N","N[S](=O)(=O)c1ccc(NC2O[C@H](CO)[C@@H](O)[C@H](O)[C@@H]2O)cc1","-0.9801","0.0","1","G1","334.35","-2.4541999999999984","75.2051","22.0","8.0","6.0","10.0","4.0","124.0","1.0","1.0","1.0","2.0","162.34","126.55623366367418","2.1214388593009184","604.4057160228713"
"B-2662","mcpa-thioethyl","InChI=1S/C11H13ClO2S/c1-3-15-11(13)7-14-10-5-4-9(12)6-8(10)2/h4-6H,3,7H2,1-2H3","AZFKQCNGMSSWDS-UHFFFAOYSA-N","CCSC(=O)COc1ccc(Cl)cc1C","-5.027","0.0","1","G1","244.743","3.3069200000000016","64.82300000000002","15.0","3.0","0.0","4.0","4.0","82.0","1.0","0.0","0.0","1.0","26.3","98.95755727327756","2.5396182727640744","352.4412000308171"
"B-2663","1-<hydroxyimino-(seqtrans)>-1-phenyl-acetone","InChI=1S/C9H9NO2/c1-7(11)9(10-12)8-5-3-2-4-6-8/h2-6,12H,1H3/b10-9+","YQHWURFNAULYNW-MDZDMXLPSA-N","CC(=O)C(=N\O)/c1ccccc1","-2.3676","0.0","1","G1","163.176","1.4539","45.44650000000002","12.0","3.0","1.0","3.0","2.0","62.0","1.0","0.0","0.0","1.0","49.66","70.33134630026466","3.0533748493861492","303.5643909481188"
"B-2664","thiazafluron","InChI=1S/C6H7F3N4OS/c1-10-4(14)13(2)5-12-11-3(15-5)6(7,8)9/h1-2H3,(H,10,14)","BBJPZPLAZVZTGR-UHFFFAOYSA-N","CNC(=O)N(C)c1sc(nn1)C(F)(F)F","-2.0584","0.0391999999999999","2","G3","240.20999999999998","1.3325","47.7697","15.0","4.0","1.0","9.0","1.0","84.0","1.0","0.0","0.0","1.0","58.120000000000005","86.90710854042652","2.894631590511528","363.50413445942536"
"B-2665","1,2-dibromoethene","InChI=1S/C2H2Br2/c3-1-2-4/h1-2H/b2-1+","UWTUEMKLYAGTNQ-OWOJBTEDSA-N","Br\C=C\Br","-1.7415","0.0","1","G1","185.84599999999998","2.2474","26.993999999999996","4.0","0.0","0.0","2.0","0.0","24.0","0.0","0.0","0.0","0.0","0.0","42.14968532132462","2.549193338482967","19.219280948873624"
"B-2666","hydroxycinnamic acid","InChI=1S/C9H8O3/c10-8-3-1-2-7(6-8)4-5-9(11)12/h1-6,10H,(H,11,12)/b5-4-","KKSDGJDHHZEWEP-PLNGDYQASA-N","OC(=O)\C=C/c1cccc(O)c1","-2.099","0.0","1","G1","164.16","1.49","44.776600000000016","12.0","2.0","2.0","3.0","2.0","62.0","1.0","0.0","0.0","1.0","57.53","69.58661603493832","2.826395262966909","315.3046159437918"
"B-2667","dowanol tpm","InChI=1S/C10H22O4/c1-8(5-11)14-10(3)7-13-9(2)6-12-4/h8-11H,5-7H2,1-4H3","GVZNXUAPPLHUOM-UHFFFAOYSA-N","COCC(C)OCC(C)OC(C)CO","0.6855","0.0","1","G1","206.28199999999998","0.8238000000000001","54.38480000000004","14.0","4.0","1.0","4.0","8.0","86.0","0.0","0.0","0.0","0.0","47.92","86.15859949811568","3.4706387663275087","129.2904058281884"
"B-2669","fosamine ammonium salt","InChI=1S/C3H8NO4P.H3N/c1-2-8-9(6,7)3(4)5;/h2H2,1H3,(H2,4,5)(H,6,7);1H3","OTSAMNSACVKIOJ-UHFFFAOYSA-N","[NH4+].CCO[P]([O-])(=O)C(N)=O","0.7693","0.0","1","G1","170.105","0.031199999999999783","34.8007","10.0","4.0","2.0","7.0","3.0","62.0","0.0","0.0","0.0","0.0","128.95000000000002","58.477017815676604","0.0","158.5816934986334"
"B-2671","1,4-naphthalenedione, 2-(methylthio)-","InChI=1S/C11H8O2S/c1-14-10-6-9(12)7-4-2-3-5-8(7)11(10)13/h2-6H,1H3","GGFFBRRZAKLGFX-UHFFFAOYSA-N","CSC1=CC(=O)c2ccccc2C1=O","-4.4651","0.0","1","G1","204.24999999999997","2.3125","56.70100000000002","14.0","3.0","0.0","3.0","1.0","70.0","1.0","0.0","1.0","2.0","34.14","86.0068337312193","2.607225421618922","446.3556829761196"
"B-2674","profluralin","InChI=1S/C14H16F3N3O4/c1-2-5-18(8-9-3-4-9)13-11(19(21)22)6-10(14(15,16)17)7-12(13)20(23)24/h6-7,9H,2-5,8H2,1H3","ITVQAKZNYJEWKS-UHFFFAOYSA-N","CCCN(CC1CC1)c2c(cc(cc2[N+]([O-])=O)C(F)(F)F)[N+]([O-])=O","-6.5407","0.0","1","G1","347.293","4.148200000000004","79.9808","24.0","5.0","0.0","10.0","7.0","132.0","1.0","1.0","1.0","2.0","89.51999999999998","134.9075002051223","2.647319126416257","624.1501312526185"
"B-2675","tirpate","InChI=1S/C8H14N2O2S2/c1-6-4-13-8(2,14-6)5-10-12-7(11)9-3/h5-6H,4H2,1-3H3,(H,9,11)/b10-5+","GHFMMRFMDHDOBP-BJMVGYQFSA-N","CNC(=O)O/N=C/C1(C)SCC(C)S1","-2.3698","0.0","1","G1","234.34599999999998","1.9128999999999998","61.94870000000003","14.0","5.0","1.0","6.0","2.0","80.0","0.0","1.0","1.0","1.0","50.69","92.20852522430383","2.3910140355400618","247.49577839754264"
"B-2676","cresyl diphenyl phosphate","InChI=1S/C19H17O4P/c1-16-12-14-19(15-13-16)23-24(20,21-17-8-4-2-5-9-17)22-18-10-6-3-7-11-18/h2-15H,1H3","OJUZRFGUKHQNJX-UHFFFAOYSA-N","Cc1ccc(O[P](=O)(Oc2ccccc2)Oc3ccccc3)cc1","-6.1517","0.0","1","G1","340.31500000000005","5.6399200000000045","93.55350000000003","24.0","4.0","0.0","5.0","6.0","122.0","3.0","0.0","0.0","3.0","44.760000000000005","140.8007800090174","1.8696967951668482","771.5052289362925"
"B-2677","phosphoric acid, bis(methylphenyl) phenyl ester","InChI=1S/C20H19O4P/c1-16-12-14-19(15-13-16)23-25(21,22-18-9-4-3-5-10-18)24-20-11-7-6-8-17(20)2/h3-15H,1-2H3","DAZHWGHCARQALS-UHFFFAOYSA-N","Cc1ccc(O[P](=O)(Oc2ccccc2)Oc3ccccc3C)cc1","-6.3733","0.0","1","G1","354.3420000000001","5.948340000000005","98.29050000000004","25.0","4.0","0.0","5.0","6.0","128.0","3.0","0.0","0.0","3.0","44.760000000000005","147.16572212341399","1.9057935088714708","875.7127072498573"
"B-2678","3(2h)-isothiazolone, 2-octyl-","InChI=1S/C11H19NOS/c1-2-3-4-5-6-7-9-12-11(13)8-10-14-12/h8,10H,2-7,9H2,1H3","JPMIIZHYYWMHDT-UHFFFAOYSA-N","CCCCCCCCN1SC=CC1=O","-2.6301","0.0","1","G1","213.346","3.2703000000000024","61.955000000000034","14.0","3.0","0.0","3.0","7.0","80.0","1.0","0.0","0.0","1.0","22.0","89.72353486161234","2.0474970762978213","289.4776801500828"
"B-2679","hexachlorobiphenyl","InChI=1S/C12H4Cl6/c13-6-4-2-1-3-5(6)7-8(14)10(16)12(18)11(17)9(7)15/h1-4H","RUEIBQJFGMERJD-UHFFFAOYSA-N","Clc1ccccc1c2c(Cl)c(Cl)c(Cl)c(Cl)c2Cl","-8.0133","0.0","1","G1","360.88200000000006","7.274","81.938","18.0","0.0","0.0","6.0","1.0","94.0","2.0","0.0","0.0","2.0","0.0","134.308094686851","2.8488742248163756","591.2000798683472"
"B-2680","phosphoric acid, diethyl 2-methylpropyl ester","InChI=1S/C8H19O4P/c1-5-10-13(9,11-6-2)12-7-8(3)4/h8H,5-7H2,1-4H3","VAUVEZMZAPNZOT-UHFFFAOYSA-N","CCO[P](=O)(OCC)OCC(C)C","-1.1765","0.0","1","G1","210.20999999999998","2.8401000000000014","51.64850000000004","13.0","4.0","0.0","5.0","7.0","80.0","0.0","0.0","0.0","0.0","44.760000000000005","80.18409219160151","3.9935978337505573","159.52696184669045"
"B-2681","pentanoic acid, 4-oxo-3-(phenylmethylene)-","InChI=1S/C12H12O3/c1-9(13)11(8-12(14)15)7-10-5-3-2-4-6-10/h2-7H,8H2,1H3,(H,14,15)","BNQYXFAVUMPZFG-UHFFFAOYSA-N","CC(=O)C(CC(O)=O)=Cc1ccccc1","-1.6111","0.0","1","G1","204.225","2.1337","57.35280000000003","15.0","2.0","1.0","3.0","4.0","78.0","1.0","0.0","0.0","1.0","54.37","88.04873072597591","2.9404586486889475","390.58807572015945"
"B-2683","4(1h)-pyrimidinone, 5-bromo-2-phenyl-","InChI=1S/C10H7BrN2O/c11-8-6-12-9(13-10(8)14)7-4-2-1-3-5-7/h1-6H,(H,12,13,14)","MWZGHIGOSHTXGY-UHFFFAOYSA-N","BrC1=CNC(=NC1=O)c2ccccc2","-3.4792","0.0","1","G1","251.083","2.1994","57.99370000000001","14.0","2.0","1.0","4.0","1.0","70.0","2.0","0.0","0.0","2.0","45.75","88.95686299313915","2.5393077873022483","492.9752269483679"
"B-2686","butanoic acid, 1,2-ethanediylbis(oxy-2,1-ethaned","InChI=1S/C14H26O6/c1-3-5-13(15)19-11-9-17-7-8-18-10-12-20-14(16)6-4-2/h3-12H2,1-2H3","AJMJPGWUPHIMKQ-UHFFFAOYSA-N","CCCC(=O)OCCOCCOCCOC(=O)CCC","-1.5598","0.0","1","G1","290.356","1.7061999999999995","73.37200000000006","20.0","6.0","0.0","6.0","13.0","118.0","0.0","0.0","0.0","0.0","71.06","120.26072363310053","3.1326645017212487","228.0486833279507"
"B-2687","3-pyridinecarboxamide, n-[(phenylamino)carbonyl]","InChI=1S/C13H11N3O2/c17-12(10-5-4-8-14-9-10)16-13(18)15-11-6-2-1-3-7-11/h1-9H,(H2,15,16,17,18)","QSHWUEPEDUMMBW-UHFFFAOYSA-N","O=C(NC(=O)c1cccnc1)Nc2ccccc2","-3.3825","0.0","1","G1","241.25","2.0435","67.16390000000003","18.0","3.0","2.0","5.0","2.0","90.0","2.0","0.0","0.0","2.0","71.09","103.86079810260436","1.9436440347490536","540.6775191913209"
"B-2689","hexachlorocyclohexane","InChI=1S/3C6H6Cl6/c7-2-1-6(11,12)5(10)4(9)3(2)8;7-3-1-2-5(9,10)4(8)6(3,11)12;7-1-2(8)4(10)6(12)5(11)3(1)9/h2-5H,1H2;3-4H,1-2H2;1-6H","REDUMVQOCNAQCW-UHFFFAOYSA-N","ClC1CC(Cl)(Cl)C(Cl)C(Cl)C1Cl.ClC2CCC(Cl)(Cl)C(Cl)C2(Cl)Cl.ClC3C(Cl)C(Cl)C(Cl)C(Cl)C3Cl","-4.9408","0.0","1","G1","872.496","11.98079999999999","172.85399999999973","36.0","0.0","0.0","18.0","0.0","216.0","0.0","3.0","3.0","3.0","0.0","301.3962279029127","2.6999999705625e-07","628.4201366017998"
"B-2691","tetradecanol","InChI=1S/C14H30O/c1-3-5-6-7-8-9-10-11-13-14(15)12-4-2/h14-15H,3-13H2,1-2H3","HRDGAIGDKJXHIU-UHFFFAOYSA-N","CCCCCCCCCCC(O)CCC","-5.837000000000001","0.0","1","G1","214.39299999999997","4.678200000000004","68.14180000000006","15.0","1.0","1.0","1.0","11.0","92.0","0.0","0.0","0.0","0.0","20.23","96.27773226718149","2.9773458177873238","111.90632784293422"
"B-2692","norflurazon","InChI=1S/C12H9ClF3N3O/c1-17-9-6-18-19(11(20)10(9)13)8-4-2-3-7(5-8)12(14,15)16/h2-6,17H,1H3","NVGOPFQZYCNLDU-UHFFFAOYSA-N","CNC1=C(Cl)C(=O)N(N=C1)c2cccc(c2)C(F)(F)F","-3.9548","0.06536570626525474","3","G5","303.671","2.9464000000000006","69.3927","20.0","4.0","1.0","8.0","2.0","106.0","2.0","0.0","0.0","2.0","46.92","116.34735929055948","2.5848585910833357","697.0773947833336"