"ID","Name","InChI","InChIKey","SMILES","Solubility","SD","Ocurrences","Group","MolWt","MolLogP","MolMR","HeavyAtomCount","NumHAcceptors","NumHDonors","NumHeteroatoms","NumRotatableBonds","NumValenceElectrons","NumAromaticRings","NumSaturatedRings","NumAliphaticRings","RingCount","TPSA","LabuteASA","BalabanJ","BertzCT"
"B-2243","allyxycarb [bsi:iso]","InChI=1S/C16H22N2O2/c1-6-8-18(9-7-2)15-12(3)10-14(11-13(15)4)20-16(19)17-5/h6-7,10-11H,1-2,8-9H2,3-5H3,(H,17,19)","FBEHFRAORPEGFH-UHFFFAOYSA-N","CNC(=O)Oc1cc(C)c(N(CC=C)CC=C)c(C)c1","-3.5932","0.0","1","G1","274.364","3.200040000000002","83.60670000000005","20.0","3.0","1.0","4.0","6.0","108.0","1.0","0.0","0.0","1.0","41.57","120.2863813824566","3.1168573771592083","476.1934907424937"
"B-2244","3-chlorodiphenyl ether","InChI=1S/C12H9ClO/c13-10-5-4-8-12(9-10)14-11-6-2-1-3-7-11/h1-9H","BMURONZFJJPAOK-UHFFFAOYSA-N","Clc1cccc(Oc2ccccc2)c1","-4.2107","0.0","1","G1","204.656","4.1323000000000025","57.96800000000003","14.0","1.0","0.0","2.0","2.0","70.0","2.0","0.0","0.0","2.0","9.23","87.90530878194956","2.1930492216170263","411.6767229032693"
"B-2245","(r)-(-)-carvone","InChI=1S/C10H14O/c1-7(2)9-5-4-8(3)10(11)6-9/h4,9H,1,5-6H2,2-3H3/t9-/m1/s1","ULDHMXUKGWMISQ-SECBINFHSA-N","CC(=C)[C@@H]1CC=C(C)C(=O)C1","-2.0608","0.0","1","G1","150.22099999999998","2.4879000000000007","46.30200000000003","11.0","1.0","0.0","1.0","1.0","60.0","0.0","0.0","1.0","1.0","17.07","67.80021493954504","2.698294200312726","223.02727634487286"
"B-2246","salicylanilide, 4'-chloro-5-nitro-","InChI=1S/C13H9ClN2O4/c14-8-1-3-9(4-2-8)15-13(18)11-7-10(16(19)20)5-6-12(11)17/h1-7,17H,(H,15,18)","CDYKTFABNOULII-UHFFFAOYSA-N","Oc1ccc(cc1C(=O)Nc2ccc(Cl)cc2)[N+]([O-])=O","-5.122000000000001","0.0","1","G1","292.67800000000005","3.206100000000001","74.16640000000001","20.0","4.0","2.0","7.0","3.0","102.0","2.0","0.0","0.0","2.0","92.47","118.3152994251869","2.263316000336962","670.5714155925533"
"B-2247","salicylanilide, 4'-chloro-3-nitro-","InChI=1S/C13H9ClN2O4/c14-8-4-6-9(7-5-8)15-13(18)10-2-1-3-11(12(10)17)16(19)20/h1-7,17H,(H,15,18)","UOHLBUBEMXVTMQ-UHFFFAOYSA-N","Oc1c(cccc1[N+]([O-])=O)C(=O)Nc2ccc(Cl)cc2","-4.5452","0.0","1","G1","292.678","3.206100000000001","74.16640000000001","20.0","4.0","2.0","7.0","3.0","102.0","2.0","0.0","0.0","2.0","92.47","118.31529942518691","2.2755438180360623","670.5714155925533"
"B-2248","alanine, n-(2-bromo-3-methylbutyryl)-, dl-","InChI=1S/C8H14BrNO3/c1-4(2)6(9)7(11)10-5(3)8(12)13/h4-6H,1-3H3,(H,10,11)(H,12,13)","AXXGBXUAFMEEMQ-UHFFFAOYSA-N","CC(C)C(Br)C(=O)NC(C)C(O)=O","-0.4825","0.0","1","G1","252.108","0.9952000000000001","52.79350000000002","13.0","2.0","2.0","5.0","4.0","76.0","0.0","0.0","0.0","0.0","66.4","85.82853357013876","4.075517845793803","205.5658200537118"
"B-2249","pentoxifylline","InChI=1S/C13H18N4O3/c1-9(18)6-4-5-7-17-12(19)10-11(14-8-15(10)2)16(3)13(17)20/h8H,4-7H2,1-3H3","BYPFEZZEUUWMEJ-UHFFFAOYSA-N","Cn1cnc2N(C)C(=O)N(CCCCC(C)=O)C(=O)c12","-0.5579999999999999","0.0","1","G1","278.31199999999995","0.19299999999999962","74.74700000000003","20.0","7.0","0.0","7.0","5.0","108.0","2.0","0.0","0.0","2.0","78.89","115.01518969017614","2.381621797689879","766.239853630029"
"B-2250","benzoic acid, 4-hydroxy-, pentyl ester","InChI=1S/C12H16O3/c1-2-3-4-9-15-12(14)10-5-7-11(13)8-6-10/h5-8,13H,2-4,9H2,1H3","ZNSSPLQZSUWFJT-UHFFFAOYSA-N","CCCCCOC(=O)c1ccc(O)cc1","-3.8135","0.0","1","G1","208.257","2.739200000000001","57.91430000000004","15.0","3.0","1.0","3.0","5.0","82.0","1.0","0.0","0.0","1.0","46.53","89.69035688762328","2.3674874478117127","303.1481998735926"
"B-2251","norgestrel","InChI=1S/C21H28O2/c1-3-20-11-9-17-16-8-6-15(22)13-14(16)5-7-18(17)19(20)10-12-21(20,23)4-2/h2,13,16-19,23H,3,5-12H2,1H3/t16-,17+,18+,19-,20-,21-/m0/s1","WWYNJERNGUHSAO-XUDSTZEESA-N","CC[C@]12CC[C@H]3[C@@H](CCC4=CC(=O)CC[C@H]34)[C@@H]1CC[C@@]2(O)C#C","-5.2567","0.0","1","G1","312.45300000000003","3.8826000000000027","90.49280000000005","23.0","2.0","1.0","2.0","1.0","124.0","0.0","3.0","4.0","4.0","37.3","139.2801469135596","1.6711962826978068","597.4530522903293"
"B-2252","1,3-benzodioxole-5-acetaldehyde","InChI=1S/C9H8O3/c10-4-3-7-1-2-8-9(5-7)12-6-11-8/h1-2,4-5H,3,6H2","RRMZTAWQQFJQHL-UHFFFAOYSA-N","O=CCc1ccc2OCOc2c1","-1.96","0.0","1","G1","164.15999999999997","1.1567","42.33300000000002","12.0","3.0","0.0","3.0","2.0","62.0","1.0","0.0","1.0","2.0","35.53","69.90901086821508","2.3167377858533187","306.64199945095794"
"B-2253","4-oxo-1,2,3,4-tetrahydro-<2>naphthoic acid","InChI=1S/C11H10O3/c12-10-6-8(11(13)14)5-7-3-1-2-4-9(7)10/h1-4,8H,5-6H2,(H,13,14)","UYNMKOITXUEVCZ-UHFFFAOYSA-N","OC(=O)C1CC(=O)c2ccccc2C1","-2.1031","0.0","1","G1","190.198","1.5163000000000002","50.219300000000025","14.0","2.0","1.0","3.0","1.0","72.0","1.0","0.0","1.0","2.0","54.37","81.36756049023431","2.379229712257271","395.2740468599653"
"B-2254","eglinazine ethyl","InChI=1S/C9H14ClN5O2/c1-3-11-8-13-7(10)14-9(15-8)12-5-6(16)17-4-2/h3-5H2,1-2H3,(H2,11,12,13,14,15)","YESXTECNXIKUMM-UHFFFAOYSA-N","CCNc1nc(Cl)nc(NCC(=O)OCC)n1","-2.9374","0.0","1","G1","259.69699999999995","0.9317999999999999","64.12340000000002","17.0","7.0","2.0","8.0","6.0","94.0","1.0","0.0","0.0","1.0","89.03","103.95805767236456","2.606103918106572","387.6490045067268"
"B-2255","l-serine, n-l-seryl-","InChI=1S/C6H12N2O5/c7-3(1-9)5(11)8-4(2-10)6(12)13/h3-4,9-10H,1-2,7H2,(H,8,11)(H,12,13)","XZKQVQKUZMAADP-UHFFFAOYSA-N","NC(CO)C(=O)NC(CO)C(O)=O","-0.5847","0.0","1","G1","192.171","-3.1322999999999985","41.71350000000001","13.0","5.0","5.0","7.0","5.0","76.0","0.0","0.0","0.0","0.0","132.88","74.15945993710892","4.0865856882122875","195.4636326137784"
"B-2256","1,2-cyclopentanedione, dioxime","InChI=1S/C5H8N2O2/c8-6-4-2-1-3-5(4)7-9/h6,8H,1-3H2","QHWNFVBTROFACM-UHFFFAOYSA-N","ONC1=C(CCC1)N=O","-1.9937","0.0","1","G1","128.131","1.1271","31.594199999999997","9.0","4.0","2.0","4.0","2.0","50.0","0.0","0.0","1.0","1.0","61.69","52.49645171921501","2.69391979307175","153.03698459046726"
"B-2257","2-pyrrolidinone, 5-methyl-1-phenyl-","InChI=1S/C11H13NO/c1-9-7-8-11(13)12(9)10-5-3-2-4-6-10/h2-6,9H,7-8H2,1H3","VKSABXHARNALNR-UHFFFAOYSA-N","CC1CCC(=O)N1c2ccccc2","-0.8457","0.0","1","G1","175.23100000000002","2.2019","52.62400000000003","13.0","1.0","0.0","2.0","1.0","68.0","1.0","1.0","1.0","2.0","20.310000000000002","78.17163830819793","2.3013243978819653","307.12613448326965"
"B-2259","1,2-benzenedicarboxylic acid, 3-nitro-, 2-methyl","InChI=1S/C9H7NO6/c1-16-9(13)7-5(8(11)12)3-2-4-6(7)10(14)15/h2-4H,1H3,(H,11,12)","UTEQVEMDYYOJGM-UHFFFAOYSA-N","COC(=O)c1c(cccc1[N+]([O-])=O)C(O)=O","-2.0853","0.0","1","G1","225.15599999999998","1.0796","51.39520000000001","16.0","5.0","1.0","7.0","3.0","84.0","1.0","0.0","0.0","1.0","106.74000000000001","89.41002836697703","3.5280503370242933","434.81705661543685"
"B-2260","phthalic acid, 3-nitro-, 2-propyl ester","InChI=1S/C11H11NO6/c1-6(2)18-11(15)7-4-3-5-8(12(16)17)9(7)10(13)14/h3-6H,1-2H3,(H,13,14)/p-1","UWMQVYAFMSNSPZ-UHFFFAOYSA-M","CC(C)OC(=O)c1cccc(c1C([O-])=O)[N+]([O-])=O","-2.3466","0.0","1","G1","252.20199999999997","0.5235","57.978400000000015","18.0","6.0","0.0","7.0","4.0","96.0","1.0","0.0","0.0","1.0","109.57000000000002","102.13991259577023","3.3558070907926667","508.2549435635343"
"B-2261","phthalic acid, 3-nitro-, 2-isopropyl ester","InChI=1S/C11H11NO6/c1-6(2)18-11(15)9-7(10(13)14)4-3-5-8(9)12(16)17/h3-6H,1-2H3,(H,13,14)/p-1","VLYOOXLMUKHFNY-UHFFFAOYSA-M","CC(C)OC(=O)c1c(cccc1[N+]([O-])=O)C([O-])=O","-2.4897","0.0","1","G1","252.20199999999997","0.5235","57.978400000000015","18.0","6.0","0.0","7.0","4.0","96.0","1.0","0.0","0.0","1.0","109.57","102.13991259577023","3.4007866023848723","476.00494356353425"
"B-2262","phthalic acid, 3-nitro-, 2-isobutyl ester","InChI=1S/C12H13NO6/c1-12(2,3)19-11(16)7-5-4-6-8(13(17)18)9(7)10(14)15/h4-6H,1-3H3,(H,14,15)/p-1","ITMRQGQCULJEJR-UHFFFAOYSA-M","CC(C)(C)OC(=O)c1cccc(c1C([O-])=O)[N+]([O-])=O","-3.0467","0.0","1","G1","266.229","0.9135999999999999","62.59540000000002","19.0","6.0","0.0","7.0","3.0","102.0","1.0","0.0","0.0","1.0","109.57000000000002","108.50485471016684","3.3581764069780213","543.6408568296293"
"B-2263","phthalic acid, 3-nitro-, isopentyl ester","InChI=1S/C13H15NO6/c1-8(2)6-7-20-13(17)9-4-3-5-10(14(18)19)11(9)12(15)16/h3-5,8H,6-7H2,1-2H3,(H,15,16)/p-1","WDTZUHJWPOQOFX-UHFFFAOYSA-M","CC(C)CCOC(=O)c1cccc(c1C([O-])=O)[N+]([O-])=O","-3.0689","0.0","1","G1","280.25600000000003","1.1612000000000002","67.16440000000001","20.0","6.0","0.0","7.0","6.0","108.0","1.0","0.0","0.0","1.0","109.57000000000002","114.86979682456345","3.050581702679916","537.6629604955889"
"B-2264","phosphinic acid, mesityl-","InChI=1S/C9H13O2P/c1-6-4-7(2)9(12(10)11)8(3)5-6/h4-5,12H,1-3H3,(H,10,11)","URXMWXKQTQWZQB-UHFFFAOYSA-N","Cc1cc(C)c(c(C)c1)[PH](O)=O","-2.7896","0.0","1","G1","184.17499999999998","1.70416","51.507300000000036","12.0","1.0","1.0","3.0","1.0","66.0","1.0","0.0","0.0","1.0","37.3","73.11183829360755","3.3798143363005275","308.29557464185643"
"B-2265","sec-butyl methyl ether","InChI=1S/C5H12O/c1-4-5(2)6-3/h5H,4H2,1-3H3","FVNIMHIOIXPIQT-UHFFFAOYSA-N","CCC(C)OC","-0.7306","0.0","1","G1","88.14999999999999","1.4313","26.761999999999986","6.0","1.0","0.0","1.0","2.0","38.0","0.0","0.0","0.0","0.0","9.23","39.31256471492286","2.7541847860376616","23.11941547876375"
"B-2266","1,3-propanediol, 2-(2-propenyloxy)-","InChI=1S/C6H12O3/c1-2-3-9-6(4-7)5-8/h2,6-8H,1,3-5H2","IGDCJKDZZUALAO-UHFFFAOYSA-N","OCC(CO)OCC=C","0.48100000000000004","0.0","1","G1","132.159","-0.4578000000000002","34.10859999999999","9.0","3.0","2.0","3.0","5.0","54.0","0.0","0.0","0.0","0.0","49.69","54.57637130152723","3.1891479320342544","68.70322440423766"
"B-2267","guanidine, n-methyl-n,n'-dinitro-","InChI=1S/C2H5N5O4/c1-5(7(10)11)2(3)4-6(8)9/h1H3,(H2,3,4)","SRKQWNFPTBNUKE-UHFFFAOYSA-N","CN(C(/N)=N/[N+]([O-])=O)[N+]([O-])=O","-0.6104","0.0","1","G1","163.093","-1.3836999999999997","33.3742","11.0","4.0","1.0","9.0","2.0","62.0","0.0","0.0","0.0","0.0","127.9","60.34546348077192","4.349375571926678","210.5279573091961"
"B-2268","phthalic acid, 3-nitro-, 2-butyl ester","InChI=1S/C12H13NO6/c1-3-7(2)19-12(16)8-5-4-6-9(13(17)18)10(8)11(14)15/h4-7H,3H2,1-2H3,(H,14,15)/p-1","FMPUSJAPIITOEY-UHFFFAOYSA-M","CCC(C)OC(=O)c1cccc(c1C([O-])=O)[N+]([O-])=O","-2.7193","0.0","1","G1","266.229","0.9135999999999999","62.59540000000002","19.0","6.0","0.0","7.0","5.0","102.0","1.0","0.0","0.0","1.0","109.57000000000002","108.50485471016684","3.2747860972054355","524.9509351672768"
"B-2270","1,2-dimethylcyclohexane (trans)","InChI=1S/C8H16/c1-7-5-3-4-6-8(7)2/h7-8H,3-6H2,1-2H3/t7-,8-/m0/s1","KVZJLSYJROEPSQ-YUMQZZPRSA-N","C[C@H]1CCCC[C@@H]1C","-4.3341","0.0","1","G1","112.216","2.832600000000001","36.79599999999999","8.0","0.0","0.0","0.0","0.0","48.0","0.0","1.0","1.0","1.0","0.0","52.28801467507656","2.2794002709583667","56.43856189774725"
"B-2272","serine","InChI=1S/C3H7NO3/c4-2(1-5)3(6)7/h2,5H,1,4H2,(H,6,7)/t2-/m0/s1","MTCFGRXMJLQNBG-REOHCLBHSA-N","N[C@@H](CO)C(O)=O","-0.3861","0.0","1","G1","105.09299999999999","-1.6094000000000002","22.696999999999996","7.0","3.0","3.0","4.0","2.0","42.0","0.0","0.0","0.0","0.0","83.55000000000001","40.559015558071266","3.3434170589539605","72.58027134782354"
"B-2273","glutamic acid","InChI=1S/C5H9NO4/c6-3(5(9)10)1-2-4(7)8/h3H,1-2,6H2,(H,7,8)(H,9,10)","WHUUTDBJXJRKMK-UHFFFAOYSA-N","NC(CCC(O)=O)C(O)=O","-0.9916","0.1585525333991885","4","G5","147.13","-0.7369000000000001","32.480999999999995","10.0","3.0","3.0","5.0","4.0","58.0","0.0","0.0","0.0","0.0","100.62","57.450421886908245","3.4907296603908136","144.58337707694835"
"B-2274","2,4'-dichlorodiphenyl ether","InChI=1S/C12H8Cl2O/c13-9-5-7-10(8-6-9)15-12-4-2-1-3-11(12)14/h1-8H","MWKULKMSBBSGTP-UHFFFAOYSA-N","Clc1ccc(Oc2ccccc2Cl)cc1","-5.52","0.0","1","G1","239.101","4.785700000000003","62.97800000000003","15.0","1.0","0.0","3.0","2.0","76.0","2.0","0.0","0.0","2.0","9.23","98.2085750088312","2.2217971938551333","451.4342279806418"
"B-2275","acetamide, n,n'-(phenylmethylene)bis-","InChI=1S/C11H14N2O2/c1-8(14)12-11(13-9(2)15)10-6-4-3-5-7-10/h3-7,11H,1-2H3,(H,12,14)(H,13,15)","JFUUKHUKGAQKIW-UHFFFAOYSA-N","CC(=O)NC(NC(C)=O)c1ccccc1","-1.3144","0.0","1","G1","206.245","0.9573999999999998","56.81640000000003","15.0","2.0","2.0","4.0","3.0","80.0","1.0","0.0","0.0","1.0","58.2","88.67888225878363","2.8051070560609115","332.8653710605151"
"B-2277","azodrin","InChI=1S/C7H14NO5P/c1-6(5-7(9)8-2)13-14(10,11-3)12-4/h5H,1-4H3,(H,8,9)/b6-5+","KRTSDMXIXPKRQR-AATRIKPKSA-N","CNC(=O)\C=C(/C)O[P](=O)(OC)OC","0.6514","0.0","1","G1","223.16499999999996","1.0536999999999999","50.53320000000002","14.0","5.0","1.0","7.0","5.0","82.0","0.0","0.0","0.0","0.0","73.86","82.84093132867248","4.44286476234683","267.25371961519227"
"B-2278","benzene, 1,2,4,5-tetrachloro-3-methoxy-","InChI=1S/C7H4Cl4O/c1-12-7-5(10)3(8)2-4(9)6(7)11/h2H,1H3","WMMFIDNWZNCBCT-UHFFFAOYSA-N","COc1c(Cl)c(Cl)cc(Cl)c1Cl","-5.1307","0.0","1","G1","245.92000000000002","4.308800000000001","53.03400000000001","12.0","1.0","0.0","5.0","1.0","66.0","1.0","0.0","0.0","1.0","9.23","90.12295537092713","3.4193747159826637","284.514952507372"
"B-2279","d-galactose, (aminocarbonyl)hydrazone","InChI=1S/C7H15N3O6/c8-7(16)10-9-1-3(12)5(14)6(15)4(13)2-11/h1,3-6,11-15H,2H2,(H3,8,10,16)/b9-1+","NOUQGOYNEGWDCZ-XLUWADSXSA-N","NC(=O)N\N=C\C(O)C(O)C(O)C(O)CO","-0.4257","0.0","1","G1","237.21200000000002","-3.9236","52.32410000000002","16.0","7.0","7.0","9.0","6.0","94.0","0.0","0.0","0.0","0.0","168.63","90.81680596194887","4.2091137290224685","248.27666252784255"
"B-2280","nicotinic acid, butyl ester","InChI=1S/C10H13NO2/c1-2-3-7-13-10(12)9-5-4-6-11-8-9/h4-6,8H,2-3,7H2,1H3","DQULIMIQTCDUAN-UHFFFAOYSA-N","CCCCOC(=O)c1cccnc1","-1.8367","0.0","1","G1","179.219","2.0385","49.42750000000003","13.0","3.0","0.0","3.0","4.0","70.0","1.0","0.0","0.0","1.0","39.19","77.75082900197714","2.404796656306514","258.88707266800486"
"B-2281","1,3-propanediol, monobenzoate","InChI=1S/C10H12O3/c11-7-4-8-13-10(12)9-5-2-1-3-6-9/h1-3,5-6,11H,4,7-8H2","BZISNWGGPWSXTK-UHFFFAOYSA-N","OCCCOC(=O)c1ccccc1","-1.2558","0.0","1","G1","180.203","1.2258","48.42730000000003","13.0","3.0","1.0","3.0","4.0","70.0","1.0","0.0","0.0","1.0","46.53","76.96047265883006","2.404796656306514","256.1321851658414"
"B-2283","dioxacarb","InChI=1S/C11H13NO4/c1-12-11(13)16-9-5-3-2-4-8(9)10-14-6-7-15-10/h2-5,10H,6-7H2,1H3,(H,12,13)","SDKQRNRRDYRQKY-UHFFFAOYSA-N","CNC(=O)Oc1ccccc1C2OCCO2","-1.5706","0.0","1","G1","223.22799999999995","1.4502","56.17070000000003","16.0","4.0","1.0","5.0","2.0","86.0","1.0","1.0","1.0","2.0","56.790000000000006","93.30230251012324","2.1896973439825773","374.0022413900417"
"B-2285","4-chlorophenyl phenyl ether","InChI=1S/C12H9ClO/c13-10-6-8-12(9-7-10)14-11-4-2-1-3-5-11/h1-9H","PGPNJCAMHOJTEF-UHFFFAOYSA-N","Clc1ccc(Oc2ccccc2)cc1","-4.7925","0.0","1","G1","204.656","4.1323000000000025","57.96800000000003","14.0","1.0","0.0","2.0","2.0","70.0","2.0","0.0","0.0","2.0","9.23","87.90530878194956","2.155110851234288","394.42672290326925"
"B-2287","benzene, 1-bromo-2-(1-methylethyl)-","InChI=1S/C9H11Br/c1-7(2)8-5-3-4-6-9(8)10/h3-7H,1-2H3","LECYCYNAEJDSIL-UHFFFAOYSA-N","CC(C)c1ccccc1Br","-4.1898","0.0","1","G1","199.09099999999995","3.5725000000000025","48.23100000000002","10.0","0.0","0.0","1.0","1.0","54.0","1.0","0.0","0.0","1.0","0.0","70.39377706832813","3.0313278985819716","215.72318047941278"
"B-2289","phosphinic acid, dibutyl-, ethyl ester","InChI=1S/C10H23O2P/c1-4-7-9-13(11,12-6-3)10-8-5-2/h4-10H2,1-3H3","ODVIGXMRBJCIPC-UHFFFAOYSA-N","CCCC[P](=O)(CCCC)OCC","-1.2005","0.0","1","G1","206.26599999999993","3.901200000000003","58.782500000000056","13.0","2.0","0.0","3.0","8.0","80.0","0.0","0.0","0.0","0.0","26.3","82.51354544512651","3.9208737294960496","145.0037354388838"
"B-2290","4-chloro-5-methyl-2-nitrophenol","InChI=1S/C7H6ClNO3/c1-4-2-7(10)6(9(11)12)3-5(4)8/h2-3,10H,1H3","JBMGJOKJUYGIJH-UHFFFAOYSA-N","Cc1cc(O)c(cc1Cl)[N+]([O-])=O","-4.3901","0.0","1","G1","187.582","2.262220000000001","44.508200000000016","12.0","3.0","1.0","5.0","1.0","64.0","1.0","0.0","0.0","1.0","63.37","73.54682093547106","3.3258841466405986","337.66852769827057"
"B-2291","4-picoline, 2-chloro-6-methoxy-alpha,alpha,alpha","InChI=1S/C7H5Cl4NO/c1-13-6-3-4(7(9,10)11)2-5(8)12-6/h2-3H,1H3","RPCKKUFLSMORHB-UHFFFAOYSA-N","COc1cc(cc(Cl)n1)C(Cl)(Cl)Cl","-4.3635","0.0","1","G1","260.935","3.5703000000000005","55.036000000000016","13.0","2.0","0.0","6.0","1.0","72.0","1.0","0.0","0.0","1.0","22.12","95.70754546627026","3.1621820636516658","309.85111883455244"
"B-2292","acetamide, n-acetyl-n-(4-ethoxyphenyl)-","InChI=1S/C12H15NO3/c1-4-16-12-7-5-11(6-8-12)13(9(2)14)10(3)15/h5-8H,4H2,1-3H3","QGKJDERCEAREGO-UHFFFAOYSA-N","CCOc1ccc(cc1)N(C(C)=O)C(C)=O","-1.9469999999999998","0.0","1","G1","221.25599999999994","1.9846999999999997","61.452000000000034","16.0","3.0","0.0","4.0","3.0","86.0","1.0","0.0","0.0","1.0","46.61","94.81747890567439","2.9416477109022083","369.7552757475153"
"B-2293","phosphoric acid, dibutyl ethyl ester","InChI=1S/C10H23O4P/c1-4-7-9-13-15(11,12-6-3)14-10-8-5-2/h4-10H2,1-3H3","NAIBHQRYLPOHGG-UHFFFAOYSA-N","CCCCO[P](=O)(OCC)OCCCC","-1.8456","0.0","1","G1","238.26399999999992","3.764400000000003","60.95250000000006","15.0","4.0","0.0","5.0","10.0","92.0","0.0","0.0","0.0","0.0","44.760000000000005","92.91397642039476","3.891106890381444","170.26120178074865"
"B-2294","phosphoric acid, dibutyl methyl ester","InChI=1S/C9H21O4P/c1-4-6-8-12-14(10,11-3)13-9-7-5-2/h4-9H2,1-3H3","LPRHLAXCXZTKNI-UHFFFAOYSA-N","CCCCO[P](=O)(OC)OCCCC","-1.4995","0.0","1","G1","224.23699999999994","3.3743000000000025","56.33550000000005","14.0","4.0","0.0","5.0","9.0","86.0","0.0","0.0","0.0","0.0","44.760000000000005","86.54903430599813","3.737825503323074","158.19488940668188"
"B-2295","5-quinolinecarboxylic acid","InChI=1S/C10H7NO2/c12-10(13)8-3-1-5-9-7(8)4-2-6-11-9/h1-6H,(H,12,13)","RAYMXZBXQCGRGX-UHFFFAOYSA-N","OC(=O)c1cccc2ncccc12","-2.6774","0.0","1","G1","173.171","1.9329999999999998","48.702300000000015","13.0","2.0","1.0","3.0","1.0","64.0","2.0","0.0","0.0","2.0","50.19","74.65341359881505","2.8309756583676706","459.93632858848656"
"B-2296","chloramben, methyl ester","InChI=1S/C8H7Cl2NO2/c1-13-8(12)5-2-4(9)3-6(11)7(5)10/h2-3H,11H2,1H3","DTSSCQVCVYZGSI-UHFFFAOYSA-N","COC(=O)c1cc(Cl)cc(N)c1Cl","-3.2634","0.0","1","G1","220.055","2.3622","52.21390000000001","13.0","3.0","1.0","5.0","1.0","70.0","1.0","0.0","0.0","1.0","52.32","85.38277782861687","3.2784430773089346","352.2424177353703"
"B-2297","2,2,3-trimethyl-3-pentanol","InChI=1S/C8H18O/c1-6-8(5,9)7(2,3)4/h9H,6H2,1-5H3","KLIHWYNSISMOMR-UHFFFAOYSA-N","CCC(C)(O)C(C)(C)C","-1.2708","0.0","1","G1","130.23099999999997","2.1935000000000002","40.369800000000005","9.0","1.0","1.0","1.0","1.0","56.0","0.0","0.0","0.0","0.0","20.23","58.088079580801804","4.1447263667447585","87.23098268032226"
"B-2298","butanediamide, n,n,n',n'-tetramethyl-","InChI=1S/C8H16N2O2/c1-9(2)7(11)5-6-8(12)10(3)4/h5-6H2,1-4H3","RCWUFNWXCIKHPC-UHFFFAOYSA-N","CN(C)C(=O)CCC(=O)N(C)C","0.5035","0.0","1","G1","172.22799999999998","-0.05699999999999994","46.62200000000003","12.0","2.0","0.0","4.0","3.0","70.0","0.0","0.0","0.0","0.0","40.620000000000005","73.13655736910007","3.6934830872422997","155.8966738041484"
"B-2299","propanoic acid, 3,3'-diselenobis-","InChI=1S/C6H10O4Se2/c7-5(8)1-3-11-12-4-2-6(9)10/h1-4H2,(H,7,8)(H,9,10)","AXJLEYVRLPNPGF-UHFFFAOYSA-N","OC(=O)CC[Se][Se]CCC(O)=O","-2.2681","0.0","1","G1","304.06200000000007","0.09580000000000005","45.627600000000015","12.0","2.0","2.0","6.0","7.0","70.0","0.0","0.0","0.0","0.0","74.6","81.58894957173035","3.0073056362946593","141.6270750562502"