"ID","Name","InChI","InChIKey","SMILES","Solubility","SD","Ocurrences","Group","MolWt","MolLogP","MolMR","HeavyAtomCount","NumHAcceptors","NumHDonors","NumHeteroatoms","NumRotatableBonds","NumValenceElectrons","NumAromaticRings","NumSaturatedRings","NumAliphaticRings","RingCount","TPSA","LabuteASA","BalabanJ","BertzCT"
"B-1239","3-bromo-1-nitrobenzene","InChI=1S/C6H4BrNO2/c7-5-2-1-3-6(4-5)8(9)10/h1-4H","FWIROFMBWVMWLB-UHFFFAOYSA-N","[O-][N+](=O)c1cccc(Br)c1","-1.3054","0.0","1","G1","202.00699999999998","2.3573000000000004","40.79640000000001","10.0","2.0","0.0","4.0","1.0","52.0","1.0","0.0","0.0","1.0","43.14","65.95192644763813","3.069899265759275","261.67965837655686"
"B-1240","1-propene-1,2,3-tricarboxylic acid, (z)-","InChI=1S/C6H6O6/c7-4(8)1-3(6(11)12)2-5(9)10/h1H,2H2,(H,7,8)(H,9,10)(H,11,12)/b3-1+","GTZCVFVGUGFEME-HNQUOIGGSA-N","OC(=O)C\C(=C/C(O)=O)C(O)=O","0.3612","0.04839999999999997","2","G3","174.10799999999998","-0.4433000000000001","35.60739999999999","12.0","3.0","3.0","6.0","4.0","66.0","0.0","0.0","0.0","0.0","111.9","66.74162612434765","4.552105266699234","250.7639251168273"
"B-1241","lactitol","InChI=1S/C12H24O11/c13-1-4(16)7(18)11(5(17)2-14)23-12-10(21)9(20)8(19)6(3-15)22-12/h4-21H,1-3H2","VQHSOMBJVWLPSR-UHFFFAOYSA-N","OCC(O)C(O)C(OC1OC(CO)C(O)C(O)C1O)C(O)CO","0.2872","0.0","1","G1","344.31300000000005","-5.761199999999992","70.83220000000004","23.0","11.0","9.0","11.0","8.0","138.0","0.0","1.0","1.0","1.0","200.52999999999997","131.1229773614409","2.8851034466565175","340.96862717564704"
"B-1242","melibiose","InChI=1S/C12H22O11/c13-1-3-5(14)8(17)10(19)12(23-3)21-2-4-6(15)7(16)9(18)11(20)22-4/h3-20H,1-2H2","DLRVVLDZNNYCBX-UHFFFAOYSA-N","OCC1OC(OCC2OC(O)C(O)C(O)C2O)C(O)C(O)C1O","0.4656","0.0","1","G1","342.297","-5.397199999999993","68.61940000000004","23.0","11.0","8.0","11.0","4.0","136.0","0.0","2.0","2.0","2.0","189.52999999999997","130.43645768522254","1.9398102917255935","380.01843836179484"
"B-1243","3,5-dinitrophenol","InChI=1S/C6H4N2O5/c9-6-2-4(7(10)11)1-5(3-6)8(12)13/h1-3,9H","UEMBNLWZFIWQFL-UHFFFAOYSA-N","Oc1cc(cc(c1)[N+]([O-])=O)[N+]([O-])=O","-1.663","0.0","1","G1","184.10699999999997","1.2086000000000003","41.41560000000001","13.0","5.0","1.0","7.0","2.0","68.0","1.0","0.0","0.0","1.0","106.50999999999999","71.53158831669259","3.2634076130998966","343.037402549959"
"B-1244","1,4-benzenedicarboxylic acid, 2-bromo-","InChI=1S/C8H5BrO4/c9-6-3-4(7(10)11)1-2-5(6)8(12)13/h1-3H,(H,10,11)(H,12,13)","QPBGNSFASPVGTP-UHFFFAOYSA-N","OC(=O)c1ccc(C(O)=O)c(Br)c1","-2.1339","0.0","1","G1","245.02799999999996","1.8455000000000001","48.0606","13.0","2.0","2.0","5.0","2.0","68.0","1.0","0.0","0.0","1.0","74.6","81.94034665841109","3.2021054375890703","372.40681802872274"
"B-1246","4-pyridinemethanol","InChI=1S/C6H7NO/c8-5-6-1-3-7-4-2-6/h1-4,8H,5H2","PTMBWNZJOQBTBK-UHFFFAOYSA-N","OCc1ccncc1","0.9621","0.0","1","G1","109.12799999999999","0.5739","30.159799999999994","8.0","2.0","1.0","2.0","1.0","42.0","1.0","0.0","0.0","1.0","33.120000000000005","47.8102269670361","2.8320858350070908","149.87452390041133"
"B-1247","2-propanol, 1,3-dichloro-, carbamate","InChI=1S/C4H7Cl2NO2/c5-1-3(2-6)9-4(7)8/h3H,1-2H2,(H2,7,8)","JMNCUXPHXKHBPY-UHFFFAOYSA-N","NC(=O)OC(CCl)CCl","-1.3605","0.0","1","G1","172.011","0.9279000000000001","35.89640000000001","9.0","2.0","1.0","5.0","3.0","54.0","0.0","0.0","0.0","0.0","52.32000000000001","63.05556785134608","3.4263044810116603","94.56842503028858"
"B-1248","m-methylbenzyl alcohol","InChI=1S/C8H10O/c1-7-3-2-4-8(5-7)6-9/h2-5,9H,6H2,1H3","JJCKHVUTVOPLBV-UHFFFAOYSA-N","Cc1cccc(CO)c1","-0.38799999999999996","0.0","1","G1","122.16699999999999","1.48732","37.101800000000004","9.0","1.0","1.0","1.0","1.0","48.0","1.0","0.0","0.0","1.0","20.23","54.95552110048619","2.9368661023365914","193.51405299160075"
"B-1249","3,5-dichlorophenoxyacetic acid","InChI=1S/C8H6Cl2O3/c9-5-1-6(10)3-7(2-5)13-4-8(11)12/h1-3H,4H2,(H,11,12)","LXWGIMHMQOCPCR-UHFFFAOYSA-N","OC(=O)COc1cc(Cl)cc(Cl)c1","-2.3617","0.0","1","G1","221.039","2.4568000000000003","49.59280000000002","13.0","2.0","1.0","5.0","3.0","70.0","1.0","0.0","0.0","1.0","46.53","84.83712088380018","2.7132421927666166","304.91521978178946"
"B-1250","m-chlorophenoxyacetic acid","InChI=1S/C8H7ClO3/c9-6-2-1-3-7(4-6)12-5-8(10)11/h1-4H,5H2,(H,10,11)","XSBUXVWJQVTYLC-UHFFFAOYSA-N","OC(=O)COc1cccc(Cl)c1","-2.1954","0.14769999999999994","2","G3","186.594","1.8034000000000001","44.58280000000002","12.0","2.0","1.0","4.0","3.0","64.0","1.0","0.0","0.0","1.0","46.53","74.5338546569185","2.5749361542074807","285.3863912728923"
"B-1251","stilbene","InChI=1S/C14H12/c1-3-7-13(8-4-1)11-12-14-9-5-2-6-10-14/h1-12H/b12-11+","PJANXHGTPQOBST-VAWYXSNFSA-N","c1ccc(cc1)\C=C\c2ccccc2","-5.7905","0.06974999999999998","2","G3","180.24999999999997","3.857000000000003","61.81200000000003","14.0","0.0","0.0","0.0","2.0","68.0","2.0","0.0","0.0","2.0","0.0","84.52877852216996","2.159341417811232","357.0681482751901"
"B-1252","1,4-benzenedimethanol","InChI=1S/C8H10O2/c9-5-7-1-2-8(6-10)4-3-7/h1-4,9-10H,5-6H2","BWVAOONFBYYRHY-UHFFFAOYSA-N","OCc1ccc(CO)cc1","-0.3861","0.0","1","G1","138.166","0.6712","38.287600000000005","10.0","2.0","2.0","2.0","2.0","54.0","1.0","0.0","0.0","1.0","40.46","59.749754852682194","2.7972512629697874","167.91749419417292"
"B-1253","3-methylhexane","InChI=1S/C7H16/c1-4-6-7(3)5-2/h7H,4-6H2,1-3H3","VLJXXKKOSFGPHI-UHFFFAOYSA-N","CCCC(C)CC","-4.3063","0.0","1","G1","100.205","2.832600000000001","34.362999999999985","7.0","0.0","0.0","0.0","3.0","44.0","0.0","0.0","0.0","0.0","0.0","46.92890371420919","2.8318199660707846","31.019550008653873"
"B-1255","3-hexanone","InChI=1S/C6H12O/c1-3-5-6(7)4-2/h3-5H2,1-2H3","PFCHFHIRKBAQGU-UHFFFAOYSA-N","CCCC(=O)CC","-0.8334","0.0","1","G1","100.16099999999999","1.7656","30.20599999999998","7.0","1.0","0.0","1.0","3.0","42.0","0.0","0.0","0.0","0.0","17.07","44.725483699856355","3.002590528674132","57.200359476037924"
"B-1256","3-methylheptane","InChI=1S/C8H18/c1-4-6-7-8(3)5-2/h8H,4-7H2,1-3H3","LAIUFBWHERIJIH-UHFFFAOYSA-N","CCCCC(C)CC","-5.1591","0.0","1","G1","114.23199999999999","3.2227000000000023","38.98","8.0","0.0","0.0","0.0","4.0","50.0","0.0","0.0","0.0","0.0","0.0","53.293845828605804","2.862065598305084","39.30296890880645"
"B-1258","1,4-dimethylcyclohexane","InChI=1S/C8H16/c1-7-3-5-8(2)6-4-7/h7-8H,3-6H2,1-2H3","QRMPKOFEUHIBNM-UHFFFAOYSA-N","CC1CCC(C)CC1","-4.4657","0.0","1","G1","112.216","2.832600000000001","36.79599999999999","8.0","0.0","0.0","0.0","0.0","48.0","0.0","1.0","1.0","1.0","0.0","52.288014675076575","2.1923771580194713","48.438561897747256"
"B-1259","n-butyl propionate","InChI=1S/C7H14O2/c1-3-5-6-9-7(8)4-2/h3-6H2,1-2H3","BTMVHUNTONAYDX-UHFFFAOYSA-N","CCCCOC(=O)CC","-1.9385","0.0","1","G1","130.18699999999998","1.7397","36.157999999999994","9.0","2.0","0.0","2.0","4.0","54.0","0.0","0.0","0.0","0.0","26.3","56.20397104375984","2.9730624080867365","78.98533616859814"
"B-1260","1,2-diiodoethene (cis)","InChI=1S/C2H2I2/c3-1-2-4/h1-2H/b2-1-","CVOGMKGEVNGRSK-UPHRSURJSA-N","I\C=C/I","-2.7813","0.0","1","G1","279.846","2.3276000000000003","37.18000000000001","4.0","0.0","0.0","2.0","0.0","24.0","0.0","0.0","0.0","0.0","0.0","52.938266352129176","2.549193338482967","19.219280948873624"
"B-1262","potassium formate","InChI=1S/CH2O2.K/c2-1-3;/h1H,(H,2,3);/q;+1/p-1","WFIZEGIEIOHZCP-UHFFFAOYSA-M","[K+].[O-]C=O","0.9288","0.07316327534999995","2","G3","84.115","-4.629899999999999","6.064","4.0","2.0","0.0","3.0","0.0","18.0","0.0","0.0","0.0","0.0","40.129999999999995","66.6175715754319","0.0","13.509775004326936"
"B-1263","2,2-dimethylpentane","InChI=1S/C7H16/c1-5-6-7(2,3)4/h5-6H2,1-4H3","CXOWYJMDMMMMJO-UHFFFAOYSA-N","CCCC(C)(C)C","-4.3575","0.0","1","G1","100.20499999999998","2.832600000000001","34.362999999999985","7.0","0.0","0.0","0.0","1.0","44.0","0.0","0.0","0.0","0.0","0.0","46.92890371420919","3.154490065368808","38.49022499567306"
"B-1264","2-methyl-2-pentanol","InChI=1S/C6H14O/c1-4-5-6(2,3)7/h7H,4-5H2,1-3H3","WFRBDWRZVBPBDO-UHFFFAOYSA-N","CCCC(C)(C)O","-0.4988","0.0","1","G1","102.17699999999998","1.5574","31.205799999999982","7.0","1.0","1.0","1.0","2.0","44.0","0.0","0.0","0.0","0.0","20.23","45.3581953520086","3.154490065368808","42.63193444574935"
"B-1265","bethanechol chloride","InChI=1S/C7H16N2O2.ClH/c1-6(11-7(8)10)5-9(2,3)4;/h6H,5H2,1-4H3,(H-,8,10);1H","XXRMYXBSBOVVBH-UHFFFAOYSA-N","[Cl-].CC(C[N+](C)(C)C)OC(N)=O","0.5021","0.0","1","G1","196.678","-2.819599999999996","43.0298","12.0","2.0","1.0","5.0","3.0","74.0","0.0","0.0","0.0","0.0","52.32","79.66676015012068","0.0","144.83202715243524"
"B-1266","2,2-dimethylhexane","InChI=1S/C8H18/c1-5-6-7-8(2,3)4/h5-7H2,1-4H3","FLTJDUOFAQWHDF-UHFFFAOYSA-N","CCCCC(C)(C)C","-5.7568","0.0","1","G1","114.23199999999999","3.2227000000000023","38.98","8.0","0.0","0.0","0.0","2.0","50.0","0.0","0.0","0.0","0.0","0.0","53.293845828605804","3.1117661943884265","47.548875021634686"
"B-1268","dicyanodiamidine sulfate","InChI=1S/2C2H6N4O.H2O4S/c2*3-1(4)6-2(5)7;1-5(2,3)4/h2*(H6,3,4,5,6,7);(H2,1,2,3,4)","IATXFPUBPMZBPH-UHFFFAOYSA-N","NC(N)=NC(N)=O.NC(N)=NC(N)=O.O[S](O)(=O)=O","-0.7814","0.0","1","G1","302.273","-3.9757999999999996","64.96379999999999","19.0","4.0","8.0","15.0","0.0","112.0","0.0","0.0","0.0","0.0","289.58000000000004","106.63064667025655","-2.057142842351474e-07","409.8596166554816"
"B-1269","3-methylcyclohexanone","InChI=1S/C7H12O/c1-6-3-2-4-7(8)5-6/h6H,2-5H2,1H3","UJBOOUHRTQVGRU-UHFFFAOYSA-N","CC1CCCC(=O)C1","-1.8738","0.0","1","G1","112.172","1.7656","32.63899999999998","8.0","1.0","0.0","1.0","0.0","46.0","0.0","1.0","1.0","1.0","17.07","50.084594660723724","2.336356083029012","96.55994821726517"
"B-1270","1-methylcyclohexene","InChI=1S/C7H12/c1-7-5-3-2-4-6-7/h5H,2-4,6H2,1H3","CTMHWPIWNRWQEG-UHFFFAOYSA-N","CC1=CCCCC1","-3.2671","0.0","1","G1","96.17300000000002","2.5067000000000004","32.22499999999999","7.0","0.0","0.0","0.0","0.0","40.0","0.0","0.0","1.0","1.0","0.0","45.23346952849571","2.4026860869140862","80.03910001730775"
"B-1271","2-methylhexane","InChI=1S/C7H16/c1-4-5-6-7(2)3/h7H,4-6H2,1-3H3","GXDHCNNESPLIKD-UHFFFAOYSA-N","CCCCC(C)C","-4.5961","0.0","1","G1","100.20499999999998","2.832600000000001","34.362999999999985","7.0","0.0","0.0","0.0","3.0","44.0","0.0","0.0","0.0","0.0","0.0","46.92890371420919","2.678257743164726","29.01955000865387"
"B-1272","allyl acetate","InChI=1S/C5H8O2/c1-3-4-7-5(2)6/h3H,1,4H2,2H3","FWZUNOYOVVKUNF-UHFFFAOYSA-N","CC(=O)OCC=C","-0.5534","0.0","1","G1","100.117","0.7355","26.829999999999988","7.0","2.0","0.0","2.0","2.0","40.0","0.0","0.0","0.0","0.0","26.3","42.784483782782374","2.9670528832697767","76.14933958998697"
"B-1273","1-chloro-2-butene","InChI=1S/C4H7Cl/c1-2-3-4-5/h2-3H,4H2,1H3/b3-2+","YTKRILODNOEEPX-NSCUHMNNSA-N","C/C=C/CCl","-1.9569","0.0","1","G1","90.553","1.8013","25.53399999999999","5.0","0.0","0.0","1.0","1.0","30.0","0.0","0.0","0.0","0.0","0.0","37.44774056571679","2.622415807990217","30.62919048309069"
"B-1274","2-heptene","InChI=1S/C7H14/c1-3-5-7-6-4-2/h3,5H,4,6-7H2,1-2H3/b5-3+","OTTZHAVKAVGASB-HWKANZROSA-N","CCCC\C=C\C","-3.8160000000000003","0.006899999999999906","2","G3","98.18899999999998","2.752700000000001","34.33899999999999","7.0","0.0","0.0","0.0","3.0","42.0","0.0","0.0","0.0","0.0","0.0","46.23930068202494","2.6891574118399517","44.0"
"B-1275","n-butylformate","InChI=1S/C5H10O2/c1-2-3-4-7-5-6/h5H,2-4H2,1H3","NMJJFJNHVMGPGM-UHFFFAOYSA-N","CCCCOC=O","-1.1307","0.11965000000000003","2","G3","102.13299999999998","0.9595","26.923999999999985","7.0","2.0","0.0","2.0","4.0","42.0","0.0","0.0","0.0","0.0","26.3","43.474086814966626","2.558780869327957","43.34481288877288"
"B-1277","chlorofluoromethane","InChI=1S/CH2ClF/c2-1-3/h1H2","XWCDCDSDNJVCLO-UHFFFAOYSA-N","FCCl","-0.8202","0.0","1","G1","68.47800000000001","1.1522","11.828000000000001","3.0","0.0","0.0","2.0","0.0","20.0","0.0","0.0","0.0","0.0","0.0","23.20805265763746","1.6329931618554523","4.754887502163468"
"B-1278","dimethyl selenide","InChI=1S/C2H6Se/c1-3-2/h1-2H3","RVIXKDRPFPUUOO-UHFFFAOYSA-N","C[Se]C","-0.6502","0.0","1","G1","109.02999999999999","0.7867999999999999","17.482","3.0","0.0","0.0","1.0","0.0","20.0","0.0","0.0","0.0","0.0","0.0","27.384754223332344","1.6329931618554523","2.7548875021634682"
"B-1280","acetamide, 2,2,2-tribromo-","InChI=1S/C2H2Br3NO/c3-2(4,5)1(6)7/h(H2,6,7)","ORCCSQMJUGMAQU-UHFFFAOYSA-N","NC(=O)C(Br)(Br)Br","-1.2668","0.0","1","G1","295.756","1.3102","38.706399999999995","7.0","1.0","1.0","5.0","0.0","42.0","0.0","0.0","0.0","0.0","43.09","66.20824875620671","3.7911184170869663","85.42592196522058"
"B-1282","trichloroacetamide","InChI=1S/C2H2Cl3NO/c3-2(4,5)1(6)7/h(H2,6,7)","UPQQXPKAYZYUKO-UHFFFAOYSA-N","NC(=O)C(Cl)(Cl)Cl","-1.0966","0.0","1","G1","162.40300000000002","0.8418999999999999","29.4844","7.0","1.0","1.0","5.0","0.0","42.0","0.0","0.0","0.0","0.0","43.09","55.51540461992766","3.7911184170869663","85.42592196522058"
"B-1283","1,1-dichloro-1-nitroethane","InChI=1S/C2H3Cl2NO2/c1-2(3,4)5(6)7/h1H3","OQOGEOLRYAOSKO-UHFFFAOYSA-N","CC(Cl)(Cl)[N+]([O-])=O","-1.7603","0.0","1","G1","143.957","1.4144","27.105399999999996","7.0","2.0","0.0","5.0","1.0","42.0","0.0","0.0","0.0","0.0","43.14","50.363701318489305","3.7911184170869663","86.18080946738405"
"B-1284","2,3-dimethyl-3-pentanol","InChI=1S/C7H16O/c1-5-7(4,8)6(2)3/h6,8H,5H2,1-4H3","RFZHJHSNHYIRNE-UHFFFAOYSA-N","CCC(C)(O)C(C)C","-0.8504","0.18479999999999996","2","G3","116.20399999999997","1.8034","35.75279999999999","8.0","1.0","1.0","1.0","2.0","50.0","0.0","0.0","0.0","0.0","20.23","51.723137466405205","3.708324167474306","64.78707744334403"
"B-1285","1,1-dichloro-1-nitropropane","InChI=1S/C3H5Cl2NO2/c1-2-3(4,5)6(7)8/h2H2,1H3","DNYOTMDPSXBJRJ-UHFFFAOYSA-N","CCC(Cl)(Cl)[N+]([O-])=O","-1.4996","0.0","1","G1","157.984","1.8045000000000002","31.722399999999993","8.0","2.0","0.0","5.0","2.0","48.0","0.0","0.0","0.0","0.0","43.14","56.72864343288592","3.9084966379068447","103.45654516950493"
"B-1286","2-ethyl-2-nitro-1,3-propanediol","InChI=1S/C5H11NO4/c1-2-5(3-7,4-8)6(9)10/h7-8H,2-4H2,1H3","YADISKICBOYXFS-UHFFFAOYSA-N","CCC(CO)(CO)[N+]([O-])=O","0.8264","0.0","1","G1","149.146","-0.6034999999999999","34.187999999999995","10.0","4.0","2.0","5.0","4.0","60.0","0.0","0.0","0.0","0.0","83.6","58.4404627123078","4.305619426082996","112.55169583620197"
"B-1287","3-hydroxy-2,2-dimethylpropanal","InChI=1S/C5H10O2/c1-5(2,3-6)4-7/h3,7H,4H2,1-2H3","JJMOMMLADQPZNY-UHFFFAOYSA-N","CC(C)(CO)C=O","-0.3279","0.0","1","G1","102.13299999999998","0.20380000000000004","26.930799999999987","7.0","2.0","1.0","2.0","2.0","42.0","0.0","0.0","0.0","0.0","37.3","43.15477533765576","3.575471150366868","66.48040587771368"
"B-1288","2-propanol, 1,3-dichloro-2-methyl-","InChI=1S/C4H8Cl2O/c1-4(7,2-5)3-6/h7H,2-3H2,1H3","UZHWBXUQTDSMGJ-UHFFFAOYSA-N","CC(O)(CCl)CCl","-0.1822","0.0","1","G1","143.01300000000003","1.215","32.06379999999999","7.0","1.0","1.0","3.0","2.0","44.0","0.0","0.0","0.0","0.0","20.23","53.23484357697873","3.3604351426960584","47.65148445440323"
"B-1290","1,3-propanediol, 2,2-bis (acetyloxy)methyl -, di","InChI=1S/C13H20O8/c1-9(14)18-5-13(6-19-10(2)15,7-20-11(3)16)8-21-12(4)17/h5-8H2,1-4H3","OUHCZCFQVONTOC-UHFFFAOYSA-N","CC(=O)OCC(COC(C)=O)(COC(C)=O)COC(C)=O","-1.5686","0.0","1","G1","304.295","0.2251999999999994","68.96500000000003","21.0","8.0","0.0","8.0","8.0","120.0","0.0","0.0","0.0","0.0","105.20000000000002","122.21882571879144","5.01638998398724","323.46566555990535"
"B-1292","4-heptanol, 4-methyl-","InChI=1S/C8H18O/c1-4-6-8(3,9)7-5-2/h9H,4-7H2,1-3H3","IQXKGRKRIRMQCQ-UHFFFAOYSA-N","CCCC(C)(O)CCC","-1.5867","0.0","1","G1","130.23099999999997","2.3376","40.439800000000005","9.0","1.0","1.0","1.0","4.0","56.0","0.0","0.0","0.0","0.0","20.23","58.08807958080182","3.4310512772790966","58.96788691072806"
"B-1294","oxirane, 2-(chloromethyl)-2-methyl-","InChI=1S/C4H7ClO/c1-4(2-5)3-6-4/h2-3H2,1H3","VVHFXJOCUKBZFS-UHFFFAOYSA-N","CC1(CCl)CO1","-0.5504","0.0","1","G1","106.552","1.0141","25.07699999999999","6.0","1.0","0.0","2.0","1.0","36.0","0.0","1.0","1.0","1.0","12.53","42.24505767387869","2.276327168621918","58.568425030288566"
"B-1295","1,2-dibromo-1-chloroethane","InChI=1S/C2H3Br2Cl/c3-1-2(4)5/h2H,1H2","DVTKTUMRXCKEEG-UHFFFAOYSA-N","ClC(Br)CBr","-2.5546","0.0","1","G1","222.307","2.341100000000001","32.361999999999995","5.0","0.0","0.0","3.0","1.0","32.0","0.0","0.0","0.0","0.0","0.0","53.14255458039055","2.5395388613593903","21.609640474436812"
"B-1297","methyl isopropyl ether","InChI=1S/C4H10O/c1-4(2)5-3/h4H,1-3H3","RMGHERXMTMUMMV-UHFFFAOYSA-N","COC(C)C","-0.057","0.0","1","G1","74.123","1.0412","22.144999999999992","5.0","1.0","0.0","1.0","1.0","32.0","0.0","0.0","0.0","0.0","9.23","32.94762260052625","2.5395388613593908","17.609640474436812"
"B-1298","acetamide, 2,2-dibromo-","InChI=1S/C2H3Br2NO/c3-1(4)2(5)6/h1H,(H2,5,6)","YUIKPESWSMJSMP-UHFFFAOYSA-N","NC(=O)C(Br)Br","-1.0574","0.0","1","G1","216.85999999999999","0.5876","30.8364","6.0","1.0","1.0","4.0","1.0","36.0","0.0","0.0","0.0","0.0","43.09","52.34070115056535","3.2575861612334887","62.568425030288566"
"B-1299","1,1,2-trichloropropane","InChI=1S/C3H5Cl3/c1-2(4)3(5)6/h2-3H,1H3","GRSQYISVQKPZCW-UHFFFAOYSA-N","CC(Cl)C(Cl)Cl","-1.8898","0.0","1","G1","147.43200000000002","2.4174000000000007","30.808999999999994","6.0","0.0","0.0","3.0","1.0","38.0","0.0","0.0","0.0","0.0","0.0","52.37893393726779","2.9934972434784735","27.019550008653873"
"B-1300","2-chloropropionic acid","InChI=1S/C3H5ClO2/c1-2(4)3(5)6/h2H,1H3,(H,5,6)","GAWAYYRQGQZKCR-UHFFFAOYSA-N","CC(Cl)C(O)=O","0.9645","0.0","1","G1","108.52399999999999","0.6983","22.950799999999994","6.0","1.0","1.0","3.0","1.0","36.0","0.0","0.0","0.0","0.0","37.3","40.728157335744214","3.2575861612334887","59.813537528125096"
"B-1302","ethane, 1-chloro-1-nitro-","InChI=1S/C2H4ClNO2/c1-2(3)4(5)6/h2H,1H3","LPIWIOBGUAPNQW-UHFFFAOYSA-N","CC(Cl)[N+]([O-])=O","-1.4374","0.0","1","G1","109.512","0.8479","22.309399999999997","6.0","2.0","0.0","4.0","1.0","36.0","0.0","0.0","0.0","0.0","43.14","40.06043509160763","3.2575861612334887","62.568425030288566"
"B-1303","benzenesulfonic acid, 4-methyl-, 2-methylphenyl","InChI=1S/C14H14O3S/c1-11-7-9-13(10-8-11)18(15,16)17-14-6-4-3-5-12(14)2/h3-10H,1-2H3","WBKWVLAHWVFXKM-UHFFFAOYSA-N","Cc1ccc(cc1)[S](=O)(=O)Oc2ccccc2C","-3.9417","0.0","1","G1","262.33","3.0711400000000015","70.17180000000003","18.0","3.0","0.0","4.0","3.0","94.0","2.0","0.0","0.0","2.0","43.370000000000005","107.1663290417057","2.332705665940394","642.9942511477956"
"B-1304","ethane, 1,1,1-trichloro-2,2-diethoxy-","InChI=1S/C6H11Cl3O2/c1-3-10-5(11-4-2)6(7,8)9/h5H,3-4H2,1-2H3","CGCJBAIEQANINV-UHFFFAOYSA-N","CCOC(OCC)C(Cl)(Cl)Cl","-1.6464","0.0","1","G1","221.51100000000002","2.755700000000001","47.33000000000003","11.0","2.0","0.0","5.0","4.0","68.0","0.0","0.0","0.0","0.0","18.46","81.70085073947136","3.875658580581269","96.49074296586133"
"B-1305","1-chloro-1-nitropropane","InChI=1S/C3H6ClNO2/c1-2-3(4)5(6)7/h3H,2H2,1H3","XEKUXTMJEFPWCG-UHFFFAOYSA-N","CCC(Cl)[N+]([O-])=O","-1.1887","0.0","1","G1","123.53899999999999","1.2379999999999998","26.926399999999994","7.0","2.0","0.0","4.0","2.0","42.0","0.0","0.0","0.0","0.0","43.14","46.425377206004235","3.3434170589539596","75.33515884998701"
"B-1306","2,4-dimethyl-3-pentanol","InChI=1S/C7H16O/c1-5(2)7(8)6(3)4/h5-8H,1-4H3","BAYAKMPRFGNNFW-UHFFFAOYSA-N","CC(C)C(O)C(C)C","-1.2201","0.0","1","G1","116.20399999999998","1.6593","35.68279999999999","8.0","1.0","1.0","1.0","2.0","50.0","0.0","0.0","0.0","0.0","20.23","51.72313746640519","3.464226847231096","49.40716557155839"
"B-1307","ethylmalonic acid","InChI=1S/C5H8O4/c1-2-3(4(6)7)5(8)9/h3H,2H2,1H3,(H,6,7)(H,8,9)","UKFXDFUAPNAMPJ-UHFFFAOYSA-N","CCC(C(O)=O)C(O)=O","0.7315","0.0","1","G1","132.11499999999998","0.18180000000000007","29.05259999999999","9.0","2.0","2.0","4.0","3.0","52.0","0.0","0.0","0.0","0.0","74.6","52.110531189895525","3.9899920112031126","114.919684538544"