"ID","Name","InChI","InChIKey","SMILES","Solubility","SD","Ocurrences","Group","MolWt","MolLogP","MolMR","HeavyAtomCount","NumHAcceptors","NumHDonors","NumHeteroatoms","NumRotatableBonds","NumValenceElectrons","NumAromaticRings","NumSaturatedRings","NumAliphaticRings","RingCount","TPSA","LabuteASA","BalabanJ","BertzCT"
"B-2803","bilanafos","InChI=1S/C11H22N3O6P/c1-6(9(15)14-7(2)11(17)18)13-10(16)8(12)4-5-21(3,19)20/h6-8H,4-5,12H2,1-3H3,(H,13,16)(H,14,15)(H,17,18)(H,19,20)/t6-,7-,8-/m0/s1","GINJFDRNADDBIN-FXQIFTODSA-N","C[C@H](NC(=O)[C@H](C)NC(=O)[C@@H](N)CC[P](C)(O)=O)C(O)=O","0.4904","0.0","1","G1","323.286","-1.301999999999997","76.05390000000003","21.0","5.0","5.0","10.0","8.0","122.0","0.0","0.0","0.0","0.0","158.82","122.27759119876839","4.333580514898264","449.2395199455363"
"B-2806","piroxicam","InChI=1S/C15H13N3O4S/c1-18-13(15(20)17-12-8-4-5-9-16-12)14(19)10-6-2-3-7-11(10)23(18,21)22/h2-9,20H,1H3,(H,16,17)/b15-13+","LDJVNWFKNMYYNT-FYWRMAATSA-N","CN1C(=C(/O)Nc2ccccn2)/C(=O)c3ccccc3[S]1(=O)=O","-4.1586","0.0","1","G1","331.35300000000007","1.7376","83.23580000000004","23.0","6.0","2.0","8.0","2.0","118.0","2.0","0.0","1.0","3.0","99.6","132.49870717684678","2.134568458812449","907.329049686318"
"B-2807","fenbufen","InChI=1S/C16H14O3/c17-15(10-11-16(18)19)14-8-6-13(7-9-14)12-4-2-1-3-5-12/h1-9H,10-11H2,(H,18,19)","ZPAKPRAICRBAOD-UHFFFAOYSA-N","OC(=O)CCC(=O)c1ccc(cc1)c2ccccc2","-5.0609","0.0","1","G1","254.28500000000003","3.4011000000000022","73.07830000000004","19.0","2.0","1.0","3.0","5.0","96.0","2.0","0.0","0.0","2.0","54.37","111.06554373543099","2.1040325135835762","570.7028578552715"
"B-2809","benzene, 1,1'-oxybis-, hexabromo deriv.","InChI=1S/C12H4Br6O/c13-5-2-8(16)12(9(17)3-5)19-10-4-6(14)1-7(15)11(10)18/h1-4H","OJMHGSMSQZEBFH-UHFFFAOYSA-N","Brc1cc(Br)c(Oc2cc(Br)cc(Br)c2Br)c(Br)c1","-8.1979","0.0","1","G1","643.587","8.053900000000002","99.15800000000002","19.0","1.0","0.0","7.0","2.0","100.0","2.0","0.0","0.0","2.0","9.23","160.807328188916","2.475930381731033","617.3521141858682"
"B-2810","phosdiphen","InChI=1S/C14H11Cl4O4P/c1-2-20-23(19,21-13-5-3-9(15)7-11(13)17)22-14-6-4-10(16)8-12(14)18/h3-8H,2H2,1H3","HEMINMLPKZELPP-UHFFFAOYSA-N","CCO[P](=O)(Oc1ccc(Cl)cc1Cl)Oc2ccc(Cl)cc2Cl","-5.774","0.0","1","G1","416.0240000000001","6.902600000000002","93.41250000000002","23.0","4.0","0.0","9.0","6.0","124.0","2.0","0.0","0.0","2.0","44.760000000000005","153.3216928248766","2.2909129330295976","696.0522799954015"
"B-2811","2,2',3,4'-tetrachlorobiphenyl","InChI=1S/C12H6Cl4/c13-7-4-5-8(11(15)6-7)9-2-1-3-10(14)12(9)16/h1-6H","ALFHIHDQSYXSGP-UHFFFAOYSA-N","Clc1ccc(c(Cl)c1)c2cccc(Cl)c2Cl","-6.6813","0.0","1","G1","291.99199999999996","5.967200000000002","71.91800000000002","16.0","0.0","0.0","4.0","1.0","82.0","2.0","0.0","0.0","2.0","0.0","113.70156223308767","2.632549823314152","534.5371240740591"
"B-2812","2-methyl-3-hexyne","InChI=1S/C7H12/c1-4-5-6-7(2)3/h7H,4H2,1-3H3","POBOUPFSQKXZFZ-UHFFFAOYSA-N","CCC#CC(C)C","-2.7448","0.0","1","G1","96.17299999999997","2.0558","32.90499999999999","7.0","0.0","0.0","0.0","0.0","40.0","0.0","0.0","0.0","0.0","0.0","45.92812910606846","3.236502566584802","79.946770165178"
"B-2813","isothioate","InChI=1S/C7H17O2PS3/c1-7(2)12-5-6-13-10(11,8-3)9-4/h7H,5-6H2,1-4H3","SPCNPOWOBZQWJK-UHFFFAOYSA-N","CO[P](=S)(OC)SCCSC(C)C","-3.4288","0.0","1","G1","260.38599999999997","3.3785000000000016","68.35500000000003","13.0","5.0","0.0","6.0","7.0","80.0","0.0","0.0","0.0","0.0","18.46","94.44405669215769","3.56446061233354","167.12058989012377"
"B-2814","9-octadecenoic acid, 12-(sulfooxy)-","InChI=1S/C18H34O6S/c1-2-3-4-11-14-17(24-25(21,22)23)15-12-9-7-5-6-8-10-13-16-18(19)20/h9,12,17H,2-8,10-11,13-16H2,1H3,(H,19,20)(H,21,22,23)","CYKFQSXTIVGYDT-UHFFFAOYSA-N","CCCCCCC(CC=CCCCCCCCC(O)=O)O[S](O)(=O)=O","-0.5781","0.0","1","G1","378.531","4.906400000000003","98.89240000000008","25.0","4.0","2.0","7.0","17.0","148.0","0.0","0.0","0.0","0.0","100.9","152.16060490823298","3.856793660217174","458.18674861846006"
"B-2815","1-hexadecanol","InChI=1S/C16H34O/c1-2-3-4-5-6-7-8-9-10-11-12-13-14-15-16-17/h17H,2-16H2,1H3","BXWNKGSJHAJOGX-UHFFFAOYSA-N","CCCCCCCCCCCCCCCCO","-6.7697","0.659963877995112","6","G4","242.44699999999992","5.460000000000006","77.39780000000006","17.0","1.0","1.0","1.0","14.0","104.0","0.0","0.0","0.0","0.0","20.23","109.00761649597472","2.846262262649495","108.69358616951132"
"B-2816","rovral (iprodione)","InChI=1S/C13H13Cl2N3O3/c1-7(2)16-12(20)17-6-11(19)18(13(17)21)10-4-8(14)3-9(15)5-10/h3-5,7H,6H2,1-2H3,(H,16,20)","ONUFESLQCSAYKA-UHFFFAOYSA-N","CC(C)NC(=O)N1CC(=O)N(C1=O)c2cc(Cl)cc(Cl)c2","-4.3757","0.01715","2","G3","330.17100000000005","2.880000000000001","79.71770000000004","21.0","3.0","1.0","8.0","2.0","112.0","1.0","1.0","1.0","2.0","69.72","131.1407950446534","2.279510120389649","598.4290902164757"
"B-2817","tiocarbazil","InChI=1S/C16H25NOS/c1-5-13(3)17(14(4)6-2)16(18)19-12-15-10-8-7-9-11-15/h7-11,13-14H,5-6,12H2,1-4H3","PHSUVQBHRAWOQD-UHFFFAOYSA-N","CCC(C)N(C(C)CC)C(=O)SCc1ccccc1","-5.0484","0.0","1","G1","279.44899999999996","4.938800000000005","84.47800000000005","19.0","2.0","0.0","3.0","6.0","106.0","1.0","0.0","0.0","1.0","20.310000000000002","121.12529005907545","2.618166876903707","369.59513992621424"
"B-2818","benzamide, 2-amino-3,5-dichloro-","InChI=1S/C7H6Cl2N2O/c8-3-1-4(7(11)12)6(10)5(9)2-3/h1-2H,10H2,(H2,11,12)","PRKRQUUATBDWTL-UHFFFAOYSA-N","NC(=O)c1cc(Cl)cc(Cl)c1N","-2.0814","0.0","1","G1","205.04399999999998","1.6744999999999999","49.3923","12.0","2.0","2.0","5.0","1.0","64.0","1.0","0.0","0.0","1.0","69.11","79.2441811817261","3.3738590108748685","338.423415200434"
"B-2819","ribavirin","InChI=1S/C8H12N4O5/c9-6(16)7-10-2-12(11-7)8-5(15)4(14)3(1-13)17-8/h2-5,8,13-15H,1H2,(H2,9,16)/t3-,4-,5-,8-/m1/s1","IWUCXVSUMQZMFG-AFCXAGJDSA-N","NC(=O)c1ncn(n1)[C@@H]2O[C@H](CO)[C@@H](O)[C@H]2O","-0.2355","0.0","1","G1","244.20700000000002","-3.0114999999999994","51.549300000000024","17.0","8.0","4.0","9.0","3.0","94.0","1.0","1.0","1.0","2.0","143.72000000000003","95.43976537340616","2.1949092649276896","421.8029666398912"
"B-2820","labetalol","InChI=1S/C19H24N2O3/c1-13(7-8-14-5-3-2-4-6-14)21-12-18(23)15-9-10-17(22)16(11-15)19(20)24/h2-6,9-11,13,18,21-23H,7-8,12H2,1H3,(H2,20,24)","SGUAFYQXFOLMHL-UHFFFAOYSA-N","CC(CCc1ccccc1)NCC(O)c2ccc(O)c(c2)C(N)=O","-3.4482","0.6840999999999999","2","G2","328.4120000000001","2.1353999999999997","93.81220000000005","24.0","4.0","4.0","5.0","8.0","128.0","2.0","0.0","0.0","2.0","95.57999999999998","141.68283461139382","1.8473022986610148","673.56704729252"
"B-2821","benzoic acid, 4-amino-, nonyl ester","InChI=1S/C16H25NO2/c1-2-3-4-5-6-7-8-13-19-16(18)14-9-11-15(17)12-10-14/h9-12H,2-8,13,17H2,1H3","KKGIDNSPWHBLLE-UHFFFAOYSA-N","CCCCCCCCCOC(=O)c1ccc(N)cc1","-6.0","0.0","1","G1","263.381","4.176200000000003","79.12990000000005","19.0","3.0","1.0","3.0","9.0","106.0","1.0","0.0","0.0","1.0","52.32","115.69578229002644","2.0584145644197127","359.5166119504802"
"B-2822","validamycin","InChI=1S/C20H35NO13/c22-3-6-1-8(12(26)15(29)11(6)25)21-9-2-7(4-23)19(17(31)13(9)27)34-20-18(32)16(30)14(28)10(5-24)33-20/h1,7-32H,2-5H2/t7-,8+,9+,10-,11-,12+,13+,14-,15+,16+,17-,18-,19-,20+/m1/s1","JARYYMUOCXVXNK-CSLFJTBJSA-N","OC[C@H]1C[C@H](N[C@H]2C=C(CO)[C@@H](O)[C@H](O)[C@H]2O)[C@H](O)[C@@H](O)[C@@H]1O[C@@H]3O[C@H](CO)[C@@H](O)[C@H](O)[C@H]3O","0.3032","0.0","1","G1","497.49400000000014","-6.7526999999999875","109.74750000000002","34.0","14.0","12.0","14.0","7.0","198.0","0.0","2.0","3.0","3.0","253.01999999999992","194.47957862537103","1.7259477537384007","693.378919983711"
"B-2823","metoprolol","InChI=1S/C15H25NO3/c1-12(2)16-10-14(17)11-19-15-6-4-13(5-7-15)8-9-18-3/h4-7,12,14,16-17H,8-11H2,1-3H3","IUBSYMUCCVWXPE-UHFFFAOYSA-N","COCCc1ccc(OCC(O)CNC(C)C)cc1","-1.1992","0.0","1","G1","267.36899999999997","1.6132","76.66250000000005","19.0","4.0","2.0","4.0","9.0","108.0","1.0","0.0","0.0","1.0","50.72","115.28706854388426","2.285695819256649","337.7488527229999"
"B-2824","benzamide, n-hydroxy-2-iodo-n-phenyl-","InChI=1S/C13H10INO2/c14-12-9-5-4-8-11(12)13(16)15(17)10-6-2-1-3-7-10/h1-9,17H","STYDGEPZWWDNEI-UHFFFAOYSA-N","ON(c1ccccc1)C(=O)c2ccccc2I","-3.5304","0.0","1","G1","339.13199999999995","3.327200000000002","74.19700000000002","17.0","2.0","1.0","4.0","2.0","86.0","2.0","0.0","0.0","2.0","40.54","112.78490558292236","2.3037464741242686","527.9524885546249"
"B-2825","amikacin","InChI=1S/C22H43N5O13/c23-2-1-8(29)20(36)27-7-3-6(25)18(39-22-16(34)15(33)13(31)9(4-24)37-22)17(35)19(7)40-21-14(32)11(26)12(30)10(5-28)38-21/h6-19,21-22,28-35H,1-5,23-26H2,(H,27,36)/t6-,7+,8-,9+,10+,11-,12+,13+,14+,15-,16+,17-,18+,19-,21+,22+/m0/s1","LKCWBDHBTVXHDL-RMDFUYIESA-N","NCC[C@H](O)C(=O)N[C@@H]1C[C@H](N)[C@@H](O[C@H]2O[C@H](CN)[C@@H](O)[C@H](O)[C@H]2O)[C@H](O)[C@H]1O[C@H]3O[C@H](CO)[C@@H](O)[C@H](N)[C@H]3O","-0.5004","0.0","1","G1","585.6080000000002","-8.424200000000015","131.42570000000003","40.0","17.0","13.0","18.0","10.0","234.0","0.0","3.0","3.0","3.0","331.93999999999994","229.26453997686886","1.847903728536342","815.0542713752033"
"B-2826","dl-phenylalanine, n-(aminocarbonyl)-","InChI=1S/C10H12N2O3/c11-10(15)12-8(9(13)14)6-7-4-2-1-3-5-7/h1-5,8H,6H2,(H,13,14)(H3,11,12,15)/p-1/t8-/m0/s1","IPWQOZCSQLTKOI-QMMMGPOBSA-M","NC(=O)N[C@@H](Cc1ccccc1)C([O-])=O","-2.0958","0.0","1","G1","207.20899999999997","-0.9841000000000006","51.660100000000014","15.0","3.0","2.0","5.0","4.0","80.0","1.0","0.0","0.0","1.0","95.25","86.89820240998772","2.6701465380280394","350.94495041448823"
"B-2827","pyrido[3,2-d]pyrimidin-4(1h)-one","InChI=1S/C7H5N3O/c11-7-6-5(9-4-10-7)2-1-3-8-6/h1-4H,(H,9,10,11)","FSKYZRCACCHDGR-UHFFFAOYSA-N","O=C1N=CNc2cccnc12","-2.0656","0.0","1","G1","147.13699999999994","0.3181","40.15870000000001","11.0","3.0","1.0","4.0","0.0","54.0","2.0","0.0","0.0","2.0","58.64","61.93353369411547","3.0307899009392414","429.3837739325197"
"B-2828","2',3,5-trichlorobiphenyl","InChI=1S/C12H7Cl3/c13-9-5-8(6-10(14)7-9)11-3-1-2-4-12(11)15/h1-7H","GXVMAQACUOSFJF-UHFFFAOYSA-N","Clc1cc(Cl)cc(c1)c2ccccc2Cl","-6.2999","0.0","1","G1","257.547","5.313800000000002","66.90800000000002","15.0","0.0","0.0","3.0","1.0","76.0","2.0","0.0","0.0","2.0","0.0","103.39829600620601","2.5897403321770627","471.7259470533523"
"B-2829","acetamide, 2,2-dichloro-n,n-di-2-propenyl-","InChI=1S/C8H11Cl2NO/c1-3-5-11(6-4-2)8(12)7(9)10/h3-4,7H,1-2,5-6H2","YRMLFORXOOIJDR-UHFFFAOYSA-N","ClC(Cl)C(=O)N(CC=C)CC=C","-1.6193","0.0","1","G1","208.08799999999997","1.9907","52.46800000000002","12.0","1.0","0.0","4.0","5.0","68.0","0.0","0.0","0.0","0.0","20.310000000000002","82.44252798824778","4.165769165773525","169.89667380414838"
"B-2830","1-chloro-2-nitropropane","InChI=1S/C3H6ClNO2/c1-3(2-4)5(6)7/h3H,2H2,1H3/t3-/m0/s1","FPJNQQRSBJPGHM-VKHMYHEASA-N","C[C@@H](CCl)[N+]([O-])=O","-1.1887","0.0","1","G1","123.53899999999999","0.8904000000000001","27.176399999999994","7.0","2.0","0.0","4.0","2.0","42.0","0.0","0.0","0.0","0.0","43.14","46.425377206004235","3.3434170589539605","75.33515884998701"
"B-2831","1,2-bis(2,4,6-tribromophenoxy)ethane","InChI=1S/C14H8Br6O2/c15-7-3-9(17)13(10(18)4-7)21-1-2-22-14-11(19)5-8(16)6-12(14)20/h3-6H,1-2H2","YATIGPZCMOYEGE-UHFFFAOYSA-N","Brc1cc(Br)c(OCCOc2c(Br)cc(Br)cc2Br)c(Br)c1","-6.5363","0.0","1","G1","687.6400000000001","7.719400000000003","110.07400000000001","22.0","2.0","0.0","8.0","5.0","118.0","2.0","0.0","0.0","2.0","18.46","178.6507576472161","1.95980797360673","583.5186592210371"
"B-2832","heptachlorodibenzo-p-dioxin","InChI=1S/C12HCl7O2/c13-2-1-3-10(7(17)4(2)14)21-12-9(19)6(16)5(15)8(18)11(12)20-3/h1H","WCLNVRQZUKYVAI-UHFFFAOYSA-N","Clc1cc2Oc3c(Cl)c(Cl)c(Cl)c(Cl)c3Oc2c(Cl)c1Cl","-11.4795","0.1645308144053537","3","G5","425.3090000000002","8.1584","88.102","21.0","2.0","0.0","9.0","0.0","110.0","2.0","0.0","1.0","3.0","18.46","153.8326202192172","2.2712703326233132","788.3961265209693"
"B-2833","etacelasil","InChI=1S/C11H25ClO6Si/c1-13-5-8-16-19(11-4-12,17-9-6-14-2)18-10-7-15-3/h4-11H2,1-3H3","SLZWEMYSYKOWCG-UHFFFAOYSA-N","COCCO[Si](CCCl)(OCCOC)OCCOC","-1.1029","0.0","1","G1","316.8540000000001","1.1531","74.76500000000006","19.0","6.0","0.0","8.0","14.0","116.0","0.0","0.0","0.0","0.0","55.38000000000001","121.12418260782046","4.373733767178668","171.4948987286046"
"B-2834","perfluidone","InChI=1S/C14H12F3NO4S2/c1-10-9-12(23(19,20)11-5-3-2-4-6-11)7-8-13(10)18-24(21,22)14(15,16)17/h2-9,18H,1H3","WHTBVLXUSXVMEV-UHFFFAOYSA-N","Cc1cc(ccc1N[S](=O)(=O)C(F)(F)F)[S](=O)(=O)c2ccccc2","-3.8009","0.0","1","G1","379.38100000000003","3.0893200000000016","81.67030000000001","24.0","4.0","1.0","10.0","4.0","130.0","2.0","0.0","0.0","2.0","80.31","136.65102422094262","2.415896290197079","953.2592296776229"
"B-2835","5-pyrimidinecarboxylic aicd, 1,2,3,4-tetrahydro-","InChI=1S/C7H8N2O3S/c1-2-12-6(11)4-3-8-7(13)9-5(4)10/h3H,2H2,1H3,(H2,8,9,10,13)","FQFSHLBWRUOCPX-UHFFFAOYSA-N","CCOC(=O)C1=CNC(=S)NC1=O","-2.0985","0.0","1","G1","200.219","0.6091899999999999","48.203900000000004","13.0","4.0","2.0","6.0","2.0","70.0","1.0","0.0","0.0","1.0","74.95","78.76089510137909","3.093472663374378","420.2360982921891"
"B-2836","d-glutamine, n2-l-leucyl-","InChI=1S/C11H21N3O4/c1-6(2)5-7(12)10(16)14-8(11(17)18)3-4-9(13)15/h6-8H,3-5,12H2,1-2H3,(H2,13,15)(H,14,16)(H,17,18)/t7-,8+/m0/s1","JYOAXOMPIXKMKK-JGVFFNPUSA-N","CC(C)C[C@H](N)C(=O)N[C@H](CCC(N)=O)C(O)=O","-1.5687","0.0","1","G1","259.306","-0.8052999999999981","65.42530000000002","18.0","4.0","4.0","7.0","8.0","104.0","0.0","0.0","0.0","0.0","135.51000000000002","105.89711580175643","4.3528785501659","317.4101859627742"
"B-2837","biocozamycin","InChI=1S/C12H18N2O7/c1-6-3-4-21-12(7(16)10(2,19)5-15)9(18)13-11(6,20)8(17)14-12/h7,15-16,19-20H,1,3-5H2,2H3,(H,13,18)(H,14,17)/t7?,10?,11-,12+/m1/s1","WOUDXEYYJPOSNE-CJYLUKGNSA-N","CC(O)(CO)C(O)[C@@]12NC(=O)[C@@](O)(NC1=O)C(=C)CCO2","-0.1971","0.0","1","G1","302.28300000000013","-3.301999999999995","67.39160000000003","21.0","7.0","6.0","9.0","3.0","118.0","0.0","3.0","3.0","3.0","148.35","119.76559775254411","2.470582026795681","505.83441008496743"
"B-2838","acetic acid, (2-bromo-4,6-dimethylphenoxy)-","InChI=1S/C10H11BrO3/c1-6-3-7(2)10(8(11)4-6)14-5-9(12)13/h3-4H,5H2,1-2H3,(H,12,13)","XISIDZGSQIHSIK-UHFFFAOYSA-N","Cc1cc(C)c(OCC(O)=O)c(Br)c1","-3.1234","0.0","1","G1","259.099","2.5293400000000004","56.74680000000002","14.0","2.0","1.0","4.0","3.0","76.0","1.0","0.0","0.0","1.0","46.53","90.8280202644714","2.908171775988023","337.3798978826766"
"B-2839","etrimfos","InChI=1S/C10H17N2O4PS/c1-5-8-11-9(15-6-2)7-10(12-8)16-17(18,13-3)14-4/h7H,5-6H2,1-4H3","FGIWFCGDPUIBEZ-UHFFFAOYSA-N","CCOc1cc(O[P](=S)(OC)OC)nc(CC)n1","-3.8638","0.0","1","G1","292.297","2.3338","71.51000000000003","18.0","7.0","0.0","8.0","7.0","102.0","1.0","0.0","0.0","1.0","62.7","111.8944607890101","3.002764092936546","435.88589799433663"
"B-2840","minoxidil","InChI=1S/C9H15N5O/c10-7-6-8(12-9(11)14(7)15)13-4-2-1-3-5-13/h6,11,15H,1-5,10H2","ZIMGGGWCDYVHOY-UHFFFAOYSA-N","NC1=CC(=NC(=N)N1O)N2CCCCC2","-1.9782","0.0","1","G1","209.25299999999993","0.17236999999999925","55.74260000000001","15.0","6.0","3.0","6.0","1.0","82.0","1.0","1.0","1.0","2.0","91.16","87.43289760459399","2.316398284375318","407.4539977349053"
"B-2841","penbutolol","InChI=1S/C18H29NO2/c1-18(2,3)19-12-15(20)13-21-17-11-7-6-10-16(17)14-8-4-5-9-14/h6-7,10-11,14-15,19-20H,4-5,8-9,12-13H2,1-3H3/t15-/m1/s1","KQXKVJAGOJTNJS-OAHLLOKOSA-N","CC(C)(C)NC[C@@H](O)COc1ccccc1C2CCCC2","-1.6195","0.0","1","G1","291.4350000000001","3.472000000000002","86.90850000000005","21.0","3.0","2.0","3.0","6.0","118.0","1.0","1.0","1.0","2.0","41.489999999999995","128.26251850403798","1.8766515218979218","433.08962111922807"
"B-2842","2,2',3,4',5',6-pcb","InChI=1S/C12H4Cl6/c13-6-1-2-7(14)12(18)11(6)5-3-9(16)10(17)4-8(5)15/h1-4H","LKHLFUVHHXCNJH-UHFFFAOYSA-N","Clc1ccc(Cl)c(c1Cl)c2cc(Cl)c(Cl)cc2Cl","-7.93","0.3600000000000003","2","G3","360.88200000000006","7.274000000000001","81.938","18.0","0.0","0.0","6.0","1.0","94.0","2.0","0.0","0.0","2.0","0.0","134.308094686851","2.7707542493684922","620.4500798683472"
"B-2843","2,2',3,3',4,6'-hexachlorobiphenyl","InChI=1S/C12H4Cl6/c13-6-3-4-7(14)11(17)9(6)5-1-2-8(15)12(18)10(5)16/h1-4H","OKBJVIVEFXPEOU-UHFFFAOYSA-N","Clc1ccc(c(Cl)c1Cl)c2c(Cl)ccc(Cl)c2Cl","-7.65","0.0","1","G1","360.88200000000006","7.274000000000001","81.938","18.0","0.0","0.0","6.0","1.0","94.0","2.0","0.0","0.0","2.0","0.0","134.308094686851","2.7787131171452772","620.4500798683472"
"B-2844","2,3,3',4,4',5-hexachlorobiphenyl","InChI=1S/C12H4Cl6/c13-7-2-1-5(3-8(7)14)6-4-9(15)11(17)12(18)10(6)16/h1-4H","LCXMEXLGMKFLQO-UHFFFAOYSA-N","Clc1ccc(cc1Cl)c2cc(Cl)c(Cl)c(Cl)c2Cl","-7.8306","0.32751331101023784","3","G5","360.88200000000006","7.274","81.938","18.0","0.0","0.0","6.0","1.0","94.0","2.0","0.0","0.0","2.0","0.0","134.308094686851","2.6749554502007737","620.4500798683472"
"B-2845","2,2',3,3',4,5,6'-heptachlorobiphenyl","InChI=1S/C12H3Cl7/c13-5-1-2-6(14)10(17)8(5)4-3-7(15)11(18)12(19)9(4)16/h1-3H","ZDLMBNHYTPHDLF-UHFFFAOYSA-N","Clc1ccc(Cl)c(c1Cl)c2cc(Cl)c(Cl)c(Cl)c2Cl","-8.5901","0.0","1","G1","395.3270000000001","7.9274000000000004","86.94800000000001","19.0","0.0","0.0","7.0","1.0","100.0","2.0","0.0","0.0","2.0","0.0","144.61136091373268","2.8403855596380785","663.8579666719705"
"B-2846","2,3',6-trichlorobiphenyl","InChI=1S/C12H7Cl3/c13-9-4-1-3-8(7-9)12-10(14)5-2-6-11(12)15/h1-7H","VQOFJPFYTCHPTR-UHFFFAOYSA-N","Clc1cccc(c1)c2c(Cl)cccc2Cl","-6.8245","0.0","1","G1","257.547","5.313800000000001","66.90800000000003","15.0","0.0","0.0","3.0","1.0","76.0","2.0","0.0","0.0","2.0","0.0","103.39829600620601","2.634485416566369","471.72594705335234"
"B-2847","8-quinolinol, 2-methyl-5-nitro-","InChI=1S/C10H8N2O3/c1-6-2-3-7-8(12(14)15)4-5-9(13)10(7)11-6/h2-5,13H,1H3","XYPACLZTPMHPLB-UHFFFAOYSA-N","Cc1ccc2c(ccc(O)c2n1)[N+]([O-])=O","-3.9598","0.0","1","G1","204.185","2.1570200000000006","54.79920000000001","15.0","4.0","1.0","5.0","1.0","76.0","2.0","0.0","0.0","2.0","76.25999999999999","85.14486722127108","2.8819320255359693","551.6039525151065"
"B-2848","ethane, 1,1-bis(methylsulfonyl)-","InChI=1S/C4H10O4S2/c1-4(9(2,5)6)10(3,7)8/h4H,1-3H3","LLGSMJDXJRKMFD-UHFFFAOYSA-N","CC([S](C)(=O)=O)[S](C)(=O)=O","-1.4188","0.0","1","G1","186.25399999999996","-0.5783999999999998","39.14960000000001","10.0","4.0","0.0","6.0","2.0","62.0","0.0","0.0","0.0","0.0","68.28","61.08487413459255","4.935254936310332","264.14929282653156"
"B-2849","alanine, n-(aminocarbonyl)-2-methyl-","InChI=1S/C5H10N2O3/c1-5(2,3(8)9)7-4(6)10/h1-2H3,(H,8,9)(H3,6,7,10)","FMXWPTBQTITILA-UHFFFAOYSA-N","CC(C)(NC(N)=O)C(O)=O","-1.1648","0.0","1","G1","146.14600000000002","-0.48210000000000025","34.43389999999999","10.0","2.0","3.0","5.0","2.0","58.0","0.0","0.0","0.0","0.0","92.41999999999999","58.206050318320266","4.127512487055626","164.27599848312957"
"B-2850","2-propenoic acid, 3-(2-ethoxyphenyl)-, (z)-","InChI=1S/C11H12O3/c1-2-14-10-6-4-3-5-9(10)7-8-11(12)13/h3-8H,2H2,1H3,(H,12,13)/b8-7-","UXTDCJJEJZCEBF-FPLPWBNLSA-N","CCOc1ccccc1\C=C/C(O)=O","-2.5234","0.0","1","G1","192.21399999999997","2.1831","54.28080000000002","14.0","2.0","1.0","3.0","4.0","74.0","1.0","0.0","0.0","1.0","46.53","82.63581174104242","2.888868796271823","342.1408100054958"
"B-2852","glyphosate isopropylamine salt","InChI=1S/C3H8NO5P.C3H9N/c5-3(6)1-4-2-10(7,8)9;1-3(2)4/h4H,1-2H2,(H,5,6)(H2,7,8,9);3H,4H2,1-2H3","ZEKANFGSDXODPD-UHFFFAOYSA-N","CC(C)N.OC(=O)CNC[P](O)(O)=O","0.6629","0.0","1","G1","228.18499999999997","-0.8506999999999996","51.873000000000026","14.0","4.0","5.0","8.0","4.0","86.0","0.0","0.0","0.0","0.0","132.88","82.46670940694224","0.0","199.64365714792035"
"B-2853","Diethatyl-ethyl","InChI=1S/C16H22ClNO3/c1-4-12-8-7-9-13(5-2)16(12)18(14(19)10-17)11-15(20)21-6-3/h7-9H,4-6,10-11H2,1-3H3","WFKSADNZWSKCRZ-UHFFFAOYSA-N","CCOC(=O)CN(C(=O)CCl)c1c(CC)cccc1CC","-3.4727","0.0","1","G1","311.8090000000001","2.9463000000000017","84.90400000000005","21.0","3.0","0.0","5.0","7.0","116.0","1.0","0.0","0.0","1.0","46.61","130.58051359014252","3.2492163005389543","480.04549792659617"