"ID","Name","InChI","InChIKey","SMILES","Solubility","SD","Ocurrences","Group","MolWt","MolLogP","MolMR","HeavyAtomCount","NumHAcceptors","NumHDonors","NumHeteroatoms","NumRotatableBonds","NumValenceElectrons","NumAromaticRings","NumSaturatedRings","NumAliphaticRings","RingCount","TPSA","LabuteASA","BalabanJ","BertzCT"
"B-2582","tripropylene glycol methyl ether","InChI=1S/C10H22O4/c1-8(11)5-13-10(3)7-14-9(2)6-12-4/h8-11H,5-7H2,1-4H3","HPFDGTFXAVIVTH-UHFFFAOYSA-N","COCC(C)OCC(C)OCC(C)O","0.6855","0.0","1","G1","206.28199999999998","0.8238000000000001","54.38480000000004","14.0","4.0","1.0","4.0","8.0","86.0","0.0","0.0","0.0","0.0","47.92","86.15859949811566","3.379510761201492","127.2904058281884"
"B-2584","acetamide, n-(4-propoxyphenyl)-","InChI=1S/C11H15NO2/c1-3-8-14-11-6-4-10(5-7-11)12-9(2)13/h4-7H,3,8H2,1-2H3,(H,12,13)","WDRXFPOGKSGHFM-UHFFFAOYSA-N","CCCOc1ccc(NC(C)=O)cc1","-3.0557","0.0","1","G1","193.24599999999998","2.4338000000000006","56.531700000000036","14.0","2.0","1.0","3.0","4.0","76.0","1.0","0.0","0.0","1.0","38.33","84.0810432046387","2.543944627199978","292.660770563408"
"B-2585","2-bornanone, 3-(hydroxymethyl)-","InChI=1S/C11H18O2/c1-10(2)8-4-5-11(10,3)9(13)7(8)6-12/h7-8,12H,4-6H2,1-3H3","YWQRRMNZXWQQJU-UHFFFAOYSA-N","CC1(C)C2CCC1(C)C(=O)C2CO","-0.215","0.0","1","G1","182.263","1.6201","50.19480000000003","13.0","2.0","1.0","2.0","1.0","74.0","0.0","2.0","2.0","2.0","37.3","79.33276571697695","2.444367528210742","256.8158936476513"
"B-2586","urea, 1-methyl-1-o-tolyl-","InChI=1S/C9H12N2O/c1-7-5-3-4-6-8(7)11(2)9(10)12/h3-6H,1-2H3,(H2,10,12)","IWYDNHDPJXFEOV-UHFFFAOYSA-N","CN(C(N)=O)c1ccccc1C","-0.4032","0.0","1","G1","164.20799999999997","1.5099200000000002","49.16540000000002","12.0","1.0","1.0","3.0","1.0","64.0","1.0","0.0","0.0","1.0","46.33","71.78747592994662","3.0227910918592995","296.33493892361565"
"B-2587","1-hexyl nitrate","InChI=1S/C6H13NO3/c1-2-3-4-5-6-10-7(8)9/h2-6H2,1H3","AGDYNDJUZRMYRG-UHFFFAOYSA-N","CCCCCCO[N+]([O-])=O","-3.1265","0.0","1","G1","147.174","1.775","37.0884","10.0","3.0","0.0","4.0","6.0","60.0","0.0","0.0","0.0","0.0","52.37","60.28452105129724","2.8385891218139165","94.99371845969098"
"B-2588","urea, 1-ethyl-1-o-tolyl-","InChI=1S/C10H14N2O/c1-3-12(10(11)13)9-7-5-4-6-8(9)2/h4-7H,3H2,1-2H3,(H2,11,13)","DVVVPMHPSRJZQX-UHFFFAOYSA-N","CCN(C(N)=O)c1ccccc1C","-0.2096","0.0","1","G1","178.23499999999999","1.9000200000000003","53.782400000000024","13.0","1.0","1.0","3.0","2.0","70.0","1.0","0.0","0.0","1.0","46.33","78.15241804434324","3.0444220824956174","309.5479848465723"
"B-2589","5-pyrimidineacetic acid, 1,2,3,4-tetrahydro-2,4-","InChI=1S/C6H6N2O4/c9-4(10)1-3-2-7-6(12)8-5(3)11/h2H,1H2,(H,9,10)(H2,7,8,11,12)","ZVGODTQUYAKZMK-UHFFFAOYSA-N","OC(=O)CC1=CNC(=O)NC1=O","-1.6287","0.0","1","G1","170.124","-1.3097","39.023199999999996","12.0","3.0","3.0","6.0","2.0","64.0","1.0","0.0","0.0","1.0","103.01999999999998","65.87938336251051","3.1044192645580067","402.499379292522"
"B-2590","1,2-pentanediol, 1-phenyl-2-propyl-","InChI=1S/C14H22O2/c1-3-10-14(16,11-4-2)13(15)12-8-6-5-7-9-12/h5-9,13,15-16H,3-4,10-11H2,1-2H3","FGVUALJOVZKHOH-UHFFFAOYSA-N","CCCC(O)(CCC)C(O)c1ccccc1","-2.648","0.0","1","G1","222.328","3.0513000000000012","66.16760000000005","16.0","2.0","2.0","2.0","6.0","90.0","1.0","0.0","0.0","1.0","40.46","97.93940753906189","2.8611993264104183","288.8634680529688"
"B-2591","1,2-hexanediol, 2-butyl-1phenyl-","InChI=1S/C16H26O2/c1-3-5-12-16(18,13-6-4-2)15(17)14-10-8-7-9-11-14/h7-11,15,17-18H,3-6,12-13H2,1-2H3","MGJOTHOXCFYBTC-UHFFFAOYSA-N","CCCCC(O)(CCCC)C(O)c1ccccc1","-3.2225","0.0","1","G1","250.382","3.831500000000003","75.40160000000006","18.0","2.0","2.0","2.0","8.0","102.0","1.0","0.0","0.0","1.0","40.46","110.6692917678551","2.8036545237207315","313.1286621786354"
"B-2592","pyridine, 2,3,4,6-tetramethyl-","InChI=1S/C9H13N/c1-6-5-7(2)10-9(4)8(6)3/h5H,1-4H3","QBSVEFGWBSANTE-UHFFFAOYSA-N","Cc1cc(C)c(C)c(C)n1","-1.3069","0.0","1","G1","135.20999999999998","2.3152800000000004","43.18500000000002","10.0","1.0","0.0","1.0","0.0","54.0","1.0","0.0","0.0","1.0","12.89","62.11081955802991","3.310532874722407","227.90033336357598"
"B-2593","digoxin","InChI=1S/C41H64O14/c1-19-36(47)28(42)15-34(50-19)54-38-21(3)52-35(17-30(38)44)55-37-20(2)51-33(16-29(37)43)53-24-8-10-39(4)23(13-24)6-7-26-27(39)14-31(45)40(5)25(9-11-41(26,40)48)22-12-32(46)49-18-22/h12,19-21,23-31,33-38,42-45,47-48H,6-11,13-18H2,1-5H3/t19-,20-,21-,23-,24+,25-,26-,27+,28+,29+,30+,31-,33+,34+,35+,36-,37-,38-,39+,40+,41+/m1/s1","LTMHDMANZUZIPE-PUGKRICDSA-N","C[C@H]1O[C@H](C[C@H](O)[C@@H]1O)O[C@H]2[C@@H](O)C[C@@H](O[C@@H]2C)O[C@H]3[C@@H](O)C[C@@H](O[C@@H]3C)O[C@H]4CC[C@@]5(C)[C@H](CC[C@@H]6[C@@H]5C[C@@H](O)[C@]7(C)[C@H](CC[C@]67O)C8=CC(=O)OC8)C4","-4.0811","0.0","1","G1","780.949","2.2181000000000015","192.61079999999947","55.0","14.0","6.0","14.0","7.0","312.0","0.0","7.0","8.0","8.0","203.05999999999997","323.3224245630436","0.8374981988041249","1409.0037418555949"
"B-2594","chloraniformethane","InChI=1S/C9H7Cl5N2O/c10-6-2-1-5(3-7(6)11)16-8(15-4-17)9(12,13)14/h1-4,8,16H,(H,15,17)","REEFSLKDEDEWAO-UHFFFAOYSA-N","Clc1ccc(NC(NC=O)C(Cl)(Cl)Cl)cc1Cl","-3.3228","0.0","1","G1","336.433","3.847600000000001","73.36240000000001","17.0","2.0","2.0","8.0","4.0","94.0","1.0","0.0","0.0","1.0","41.129999999999995","123.30380706435498","2.8579212139776007","406.8629535656804"
"B-2595","1,2,4-thiadiazolidine-3,5-dithione","InChI=1S/C2H2N2S3/c5-1-3-2(6)7-4-1/h(H2,3,4,5,6)","OTNSJAUBOYWVEB-UHFFFAOYSA-N","S=C1NSC(=S)N1","-1.7618","0.0","1","G1","150.25300000000001","1.86328","34.688399999999994","7.0","3.0","2.0","5.0","0.0","38.0","1.0","0.0","0.0","1.0","31.58","54.36971283515665","3.5924568113957625","215.1827403486207"
"B-2597","tonalid","InChI=1S/C18H26O/c1-11-8-16-15(9-14(11)13(3)19)17(4,5)10-12(2)18(16,6)7/h8-9,12H,10H2,1-7H3","DNRJTBAOUJJKDY-UHFFFAOYSA-N","CC1CC(C)(C)c2cc(C(C)=O)c(C)cc2C1(C)C","-5.3154","0.0","1","G1","258.4049999999999","4.792620000000005","81.01650000000005","19.0","1.0","0.0","1.0","1.0","104.0","1.0","0.0","1.0","2.0","17.07","116.96639943877078","2.754631816447549","534.866419318812"
"B-2598","1,3-benzenedicarboxylic acid, 2-nitro-","InChI=1S/C8H5NO6/c10-7(11)4-2-1-3-5(8(12)13)6(4)9(14)15/h1-3H,(H,10,11)(H,12,13)","CAHWDGJDQYAFHM-UHFFFAOYSA-N","OC(=O)c1cccc(C(O)=O)c1[N+]([O-])=O","-1.9901","0.0","1","G1","211.12899999999996","0.9911999999999999","47.01499999999999","15.0","4.0","2.0","7.0","3.0","78.0","1.0","0.0","0.0","1.0","117.74000000000001","82.72577477526953","3.55594512931231","420.1951582999609"
"B-2599","prynachlor","InChI=1S/C12H12ClNO/c1-3-10(2)14(12(15)9-13)11-7-5-4-6-8-11/h1,4-8,10H,9H2,2H3","DGPBHERUGBOSFZ-UHFFFAOYSA-N","CC(C#C)N(C(=O)CCl)c1ccccc1","-2.6468","0.0","1","G1","221.687","2.2801","62.94300000000003","15.0","1.0","0.0","3.0","3.0","78.0","1.0","0.0","0.0","1.0","20.310000000000002","94.84490319486473","3.028043102993094","368.9585510919331"
"B-2600","2-butanol, 3-chloro-2-methyl-","InChI=1S/C5H11ClO/c1-4(6)5(2,3)7/h4,7H,1-3H3","YYHQXKBKFKTDMP-UHFFFAOYSA-N","CC(Cl)C(C)(C)O","-0.2926","0.0","1","G1","122.59499999999998","1.3846","31.612799999999982","7.0","1.0","1.0","2.0","1.0","44.0","0.0","0.0","0.0","0.0","20.23","49.29651946449366","3.541196965079901","53.5907190016011"
"B-2601","4,6-dinitro-biphenyl-3-ol","InChI=1S/C12H8N2O5/c15-12-6-9(8-4-2-1-3-5-8)10(13(16)17)7-11(12)14(18)19/h1-7,15H","XIAPTRBHEBTAOZ-UHFFFAOYSA-N","Oc1cc(c2ccccc2)c(cc1[N+]([O-])=O)[N+]([O-])=O","-4.4611","0.0","1","G1","260.205","2.8756000000000013","66.8516","19.0","5.0","1.0","7.0","3.0","96.0","2.0","0.0","0.0","2.0","106.50999999999999","106.58868252275659","2.7092922911430546","654.6693606605909"
"B-2602","fosthietan","InChI=1S/C6H12NO3PS2/c1-3-9-11(8,10-4-2)7-6-12-5-13-6/h3-5H2,1-2H3","RHJOIOVESMTJEK-UHFFFAOYSA-N","CCO[P](=O)(OCC)N=C1SCS1","-0.6835","0.0","1","G1","241.274","2.961000000000001","58.34250000000003","13.0","5.0","0.0","7.0","5.0","76.0","0.0","1.0","1.0","1.0","47.89","86.4459132339936","2.5943379087539564","230.03386331808002"
"B-2603","2-(thiocyanatemethylthio)benzothiazole","InChI=1S/C9H6N2S3/c10-5-12-6-13-9-11-7-3-1-2-4-8(7)14-9/h1-4H,6H2","TUBQDCKAWGHZPF-UHFFFAOYSA-N","N#CSCSc1sc2ccccc2n1","-3.2803","0.0","1","G1","238.36200000000002","3.5601800000000017","63.54800000000003","14.0","5.0","0.0","5.0","3.0","70.0","2.0","0.0","0.0","2.0","36.68","94.3417628635826","2.1548975833021293","439.1069568869505"
"B-2604","4-heptanol, 2-methyl-","InChI=1S/C8H18O/c1-4-5-8(9)6-7(2)3/h7-9H,4-6H2,1-3H3","QXPLZEKPCGUWEM-UHFFFAOYSA-N","CCCC(O)CC(C)C","-1.9079","0.0","1","G1","130.23099999999997","2.1935000000000002","40.369800000000005","9.0","1.0","1.0","1.0","4.0","56.0","0.0","0.0","0.0","0.0","20.23","58.088079580801804","3.1512513888997318","59.58797503894244"
"B-2605","benzoic acid, 5-bromo-2-chloro-","InChI=1S/C7H4BrClO2/c8-4-1-2-6(9)5(3-4)7(10)11/h1-3H,(H,10,11)/p-1","FGERXQWKKIVFQG-UHFFFAOYSA-M","[O-]C(=O)c1cc(Br)ccc1Cl","-1.952","0.0","1","G1","234.456","1.466","43.48250000000001","11.0","2.0","0.0","4.0","1.0","58.0","1.0","0.0","0.0","1.0","40.129999999999995","76.92291491865637","3.232208870305491","298.4920897763861"
"B-2606","2h-1,4-benzoxazin-3(4h)-one, 4-methyl-","InChI=1S/C9H9NO2/c1-10-7-4-2-3-5-8(7)12-6-9(10)11/h2-5H,6H2,1H3","DBJMEBUKQVZWMD-UHFFFAOYSA-N","CN1C(=O)COc2ccccc12","-2.1445","0.0","1","G1","163.176","1.0417999999999998","45.34700000000002","12.0","2.0","0.0","3.0","0.0","62.0","1.0","0.0","1.0","2.0","29.540000000000003","70.55529930891156","2.4839707746704804","322.0595034459553"
"B-2607","acetic acid, 1-(3,4-dichlorophenyl)-2,2,2-trichl","InChI=1S/C10H7Cl5O2/c1-5(16)17-9(10(13,14)15)6-2-3-7(11)8(12)4-6/h2-4,9H,1H3","FSGNOVKGEXRRHD-UHFFFAOYSA-N","CC(=O)OC(c1ccc(Cl)c(Cl)c1)C(Cl)(Cl)Cl","-3.8279","0.0","1","G1","336.429","4.967800000000001","71.25900000000003","17.0","2.0","0.0","7.0","2.0","94.0","1.0","0.0","0.0","1.0","26.3","123.68257004104238","3.128261267611269","427.1947007908671"
"B-2608","di-sec-butanolamine","InChI=1S/C8H19NO2/c1-3-7(10)5-9-6-8(11)4-2/h7-11H,3-6H2,1-2H3","KQIXMZWXFFHRAQ-UHFFFAOYSA-N","CCC(O)CNCC(O)CC","0.7925","0.0","1","G1","161.245","0.11779999999999952","45.46530000000002","11.0","3.0","3.0","3.0","6.0","68.0","0.0","0.0","0.0","0.0","52.489999999999995","68.43217551660585","3.1273714619787736","78.16124341503082"
"B-2609","isopentyl nitrate","InChI=1S/C5H11NO3/c1-3-4-5(2)9-6(7)8/h5H,3-4H2,1-2H3","RWRBSYOTDDOXKC-UHFFFAOYSA-N","CCCC(C)O[N+]([O-])=O","-2.4809","0.0","1","G1","133.147","1.3833","32.44939999999999","9.0","3.0","0.0","4.0","4.0","54.0","0.0","0.0","0.0","0.0","52.37","53.919578936900635","3.259231489128124","94.2038970536883"
"B-2610","cartap hydrochloride","InChI=1S/C7H15N3O2S2.ClH/c1-10(2)5(3-13-6(8)11)4-14-7(9)12;/h5H,3-4H2,1-2H3,(H2,8,11)(H2,9,12);1H","MSHXTAQSSIEBQS-UHFFFAOYSA-N","[Cl-].C[NH+](C)C(CSC(N)=O)CSC(N)=O","-0.1364","0.0","1","G1","273.811","-3.8726999999999974","60.681500000000014","15.0","4.0","3.0","8.0","5.0","90.0","0.0","0.0","0.0","0.0","90.62","104.09087628180544","0.0","198.4119781976022"
"B-2611","1,2,3-thiadiazole-4-carboxylic acid, 5-methyl-","InChI=1S/C4H4N2O2S/c1-2-3(4(7)8)5-6-9-2/h1H3,(H,7,8)","ZLJIFINJKVSIRN-UHFFFAOYSA-N","Cc1snnc1C(O)=O","-0.4598","0.0","1","G1","144.155","0.5447199999999999","31.60529999999999","9.0","4.0","1.0","5.0","1.0","48.0","1.0","0.0","0.0","1.0","63.080000000000005","55.30624599018461","3.0766634399873354","232.22643653531688"
"B-2612","biopterin","InChI=1S/C9H11N5O3/c1-3(15)6(16)4-2-11-7-5(12-4)8(17)14-9(10)13-7/h2-3,6,15-16H,1H3,(H3,10,11,13,14,17)","LHQIJBMDNUYRAM-UHFFFAOYSA-N","CC(O)C(O)c1cnc2NC(=NC(=O)c2n1)N","-2.5301","0.28495000000000004","2","G3","237.219","-1.2905","59.00670000000001","17.0","7.0","4.0","8.0","2.0","90.0","2.0","0.0","0.0","2.0","138.01","95.17636621965654","2.619469435147292","609.0930819850536"
"B-2613","benzoylprop ethyl","InChI=1S/C18H17Cl2NO3/c1-3-24-18(23)12(2)21(14-9-10-15(19)16(20)11-14)17(22)13-7-5-4-6-8-13/h4-12H,3H2,1-2H3","SLCGUGMPSUYJAY-UHFFFAOYSA-N","CCOC(=O)C(C)N(C(=O)c1ccccc1)c2ccc(Cl)c(Cl)c2","-4.2627","0.0","1","G1","366.24400000000014","4.591800000000004","95.80850000000004","24.0","3.0","0.0","6.0","5.0","126.0","2.0","0.0","0.0","2.0","46.61","150.4811055655018","2.4607081560570165","734.2986614084061"
"B-2614","tetrachlorvinphos","InChI=1S/C10H9Cl4O4P/c1-16-19(15,17-2)18-10(5-11)6-3-8(13)9(14)4-7(6)12/h3-5H,1-2H3/b10-5+","UBCKGWBNUIFUST-BJMVGYQFSA-N","CO[P](=O)(OC)OC(=C/Cl)/c1cc(Cl)c(Cl)cc1Cl","-4.5221","0.0","1","G1","365.96400000000006","5.6015000000000015","78.01150000000003","19.0","4.0","0.0","9.0","5.0","106.0","1.0","0.0","0.0","1.0","44.760000000000005","130.30487981542154","3.195069219267893","538.5763442423938"
"B-2615","acetamide, n-(4-ethoxyphenyl)-2-hydroxy-","InChI=1S/C10H13NO3/c1-2-14-9-5-3-8(4-6-9)11-10(13)7-12/h3-6,12H,2,7H2,1H3,(H,11,13)","UJUHYRDNSIRHHG-UHFFFAOYSA-N","CCOc1ccc(NC(=O)CO)cc1","-2.1058","0.0","1","G1","195.218","1.0161","53.326500000000024","14.0","3.0","2.0","4.0","4.0","76.0","1.0","0.0","0.0","1.0","58.56","82.51033484243811","2.589071736723409","294.74034991738114"
"B-2616","acetic acid, bis(2-carboxyphenyl)-","InChI=1S/C16H12O6/c17-14(18)11-7-3-1-5-9(11)13(16(21)22)10-6-2-4-8-12(10)15(19)20/h1-8,13H,(H,17,18)(H,19,20)(H,21,22)","AOTLXSIYOKZSAI-UHFFFAOYSA-N","OC(=O)C(c1ccccc1C(O)=O)c2ccccc2C(O)=O","-2.4998","0.0","1","G1","300.266","2.2995","76.28140000000003","22.0","3.0","3.0","6.0","5.0","112.0","2.0","0.0","0.0","2.0","111.9","124.81553333986679","2.708249577708347","692.3061802544519"
"B-2617","methanesulfonamide, n-phenyl-n-((1,1,2,2-tetrach","InChI=1S/C9H8Cl4FNO2S2/c1-19(16,17)15(7-5-3-2-4-6-7)18-9(12,13)8(10,11)14/h2-6H,1H3","SVIKNKPDPGCMAE-UHFFFAOYSA-N","C[S](=O)(=O)N(SC(Cl)(Cl)C(F)(Cl)Cl)c1ccccc1","-5.1485","0.0","1","G1","387.112","4.333100000000003","81.33780000000002","19.0","3.0","0.0","10.0","5.0","108.0","1.0","0.0","0.0","1.0","37.38","134.68392687175188","3.165799885045667","532.9006318339561"
"B-2618","benzenepropanoic acid, 2-nitro-.beta.-oxo-","InChI=1S/C9H7NO5/c11-8(5-9(12)13)6-3-1-2-4-7(6)10(14)15/h1-4H,5H2,(H,12,13)","PJDGOXXKHPBMQA-UHFFFAOYSA-N","OC(=O)CC(=O)c1ccccc1[N+]([O-])=O","-1.8434","0.0","1","G1","209.15699999999998","1.2522","49.67970000000001","15.0","4.0","1.0","6.0","4.0","78.0","1.0","0.0","0.0","1.0","97.50999999999999","84.29648313747012","3.077424312421191","426.2658098661223"
"B-2619","bendiocarb","InChI=1S/C11H13NO4/c1-11(2)15-8-6-4-5-7(9(8)16-11)14-10(13)12-3/h4-6H,1-3H3,(H,12,13)","XEGGRYVFLWGFHI-UHFFFAOYSA-N","CNC(=O)Oc1cccc2OC(C)(C)Oc12","-2.9338","0.40659999999999985","2","G3","223.22799999999995","1.9121","56.86070000000003","16.0","4.0","1.0","5.0","1.0","86.0","1.0","0.0","1.0","2.0","56.790000000000006","93.3023025101232","2.2980827540382798","427.99278111223833"
"B-2620","anisomycin","InChI=1S/C14H19NO4/c1-9(16)19-14-12(15-8-13(14)17)7-10-3-5-11(18-2)6-4-10/h3-6,12-15,17H,7-8H2,1-2H3/t12-,13+,14+/m0/s1","YKJYKKNCCRKFSL-BFHYXJOUSA-N","COc1ccc(C[C@@H]2NC[C@@H](O)[C@@H]2OC(C)=O)cc1","-1.6075","0.0","1","G1","265.30899999999997","0.5020999999999994","70.04950000000004","19.0","5.0","2.0","5.0","4.0","104.0","1.0","1.0","1.0","2.0","67.78999999999999","112.07781737600222","2.0154233929330507","431.57703411778425"
"B-2621","propanoic acid, 2,2,3,3-tetrafluoro-, sodium sal","InChI=1S/C3H2F4O2.Na/c4-1(5)3(6,7)2(8)9;/h1H,(H,8,9);/q;+1/p-1","SGUSXTMVKMPQKI-UHFFFAOYSA-M","[Na+].[O-]C(=O)C(F)(F)C(F)F","-0.8829","0.0","1","G1","168.021","-3.3592999999999984","15.958000000000002","10.0","2.0","0.0","7.0","2.0","54.0","0.0","0.0","0.0","0.0","40.129999999999995","75.50043234327943","0.0","125.67111131496571"
"B-2622","dimethamrtryne","InChI=1S/C11H21N5S/c1-6-12-9-14-10(13-8(4)7(2)3)16-11(15-9)17-5/h7-8H,6H2,1-5H3,(H2,12,13,14,15,16)","IKYICRRUVNIHPP-UHFFFAOYSA-N","CCNc1nc(NC(C)C(C)C)nc(SC)n1","-3.7082","0.0","1","G1","255.391","2.4817","73.69440000000003","17.0","6.0","2.0","6.0","6.0","96.0","1.0","0.0","0.0","1.0","62.730000000000004","107.23271837009067","2.8610182065117575","355.7150689235082"
"B-2623","cyprazine","InChI=1S/C9H14ClN5/c1-5(2)11-8-13-7(10)14-9(15-8)12-6-3-4-6/h5-6H,3-4H2,1-2H3,(H2,11,12,13,14,15)","OOHIAOSLOGDBCE-UHFFFAOYSA-N","CC(C)Nc1nc(Cl)nc(NC2CC2)n1","-3.5185","0.5007499999999998","2","G2","227.699","1.9195999999999998","60.24040000000002","15.0","5.0","2.0","6.0","4.0","82.0","1.0","1.0","1.0","2.0","62.730000000000004","93.67715918928468","2.113182238669608","328.1059823484097"
"B-2624","prallethrin","InChI=1S/C19H24O3/c1-7-8-13-12(4)16(10-15(13)20)22-18(21)17-14(9-11(2)3)19(17,5)6/h1,9,14,16-17H,8,10H2,2-6H3/t14-,16?,17+/m0/s1","SMKRKQBMYOFFMU-DRXWIORDSA-N","CC(C)=C[C@H]1[C@H](C(=O)OC2CC(=O)C(=C2C)CC#C)C1(C)C","-4.5746","0.0","1","G1","300.398","3.449200000000002","85.84600000000005","22.0","3.0","0.0","3.0","4.0","118.0","0.0","1.0","2.0","2.0","43.370000000000005","132.35315553699522","2.072272288421603","609.0817788358146"
"B-2625","1h-purine-2,6-dione, 7-ethyl-3,7-dihydro-1,3-dim","InChI=1S/C9H12N4O2/c1-4-13-5-10-7-6(13)8(14)12(3)9(15)11(7)2/h5H,4H2,1-3H3","RPOQNHMXOPWCEK-UHFFFAOYSA-N","CCn1cnc2N(C)C(=O)N(C)C(=O)c12","-0.7544","0.0","1","G1","208.22099999999998","-0.5464000000000002","55.88900000000001","15.0","6.0","0.0","6.0","1.0","80.0","2.0","0.0","0.0","2.0","61.82","85.39389913254594","3.112238371078967","631.8253673508915"
"B-2626","pirimicarb","InChI=1S/C11H18N4O2/c1-7-8(2)12-10(14(3)4)13-9(7)17-11(16)15(5)6/h1-6H3","YFGYUFNIOHWBOB-UHFFFAOYSA-N","CN(C)C(=O)Oc1nc(nc(C)c1C)N(C)C","-1.9457","0.0","1","G1","238.29099999999997","1.2198399999999998","65.54400000000004","17.0","5.0","0.0","6.0","2.0","94.0","1.0","0.0","0.0","1.0","58.56000000000001","101.22002855212362","3.09733777706589","429.72476191133063"
"B-2627","oxamyl","InChI=1S/C7H13N3O3S/c1-8-7(12)13-9-5(14-4)6(11)10(2)3/h1-4H3,(H,8,12)/b9-5-","KZAUOCCYDRDERY-UITAMQMPSA-N","CNC(=O)O\N=C(SC)\C(=O)N(C)C","0.1062","0.0","1","G1","219.266","0.10709999999999997","55.18470000000002","14.0","5.0","1.0","7.0","1.0","80.0","0.0","0.0","0.0","0.0","70.99999999999999","86.64766000831835","4.399365653142079","252.56457479341313"
"B-2628","1h-purine-2,6-dione, 3,7-dihydro-7-(3-hydroxypro","InChI=1S/C10H14N4O3/c1-12-8-7(9(16)13(2)10(12)17)14(6-11-8)4-3-5-15/h6,15H,3-5H2,1-2H3","QCGRMMZPZDAITA-UHFFFAOYSA-N","CN1C(=O)N(C)c2ncn(CCCO)c2C1=O","-0.1551","0.0","1","G1","238.24699999999993","-1.1839000000000002","61.91780000000002","17.0","7.0","1.0","7.0","3.0","92.0","2.0","0.0","0.0","2.0","82.05000000000001","96.55307499913857","2.766339791568492","664.4664514898798"
"B-2630","formetanate hydrochloride","InChI=1S/C11H15N3O2.ClH/c1-12-11(15)16-10-6-4-5-9(7-10)13-8-14(2)3;/h4-8H,1-3H3,(H,12,15);1H","MYPKGPZHHQEODQ-UHFFFAOYSA-N","[H+].[Cl-].CNC(=O)Oc1cccc(c1)N=CN(C)C","0.5037","0.0","1","G1","257.721","-1.2572999999999988","64.47670000000002","17.0","3.0","1.0","6.0","3.0","94.0","1.0","0.0","0.0","1.0","53.93","108.37409098274712","0.0","399.62964438741056"
"B-2631","pirimiphos ethyl","InChI=1S/C13H24N3O3PS/c1-6-16(7-2)13-14-11(5)10-12(15-13)19-20(21,17-8-3)18-9-4/h10H,6-9H2,1-5H3","TZBPRYIIJAJUOY-UHFFFAOYSA-N","CCO[P](=S)(OCC)Oc1cc(C)nc(n1)N(CC)CC","-4.9242","0.0","1","G1","333.3940000000001","3.307520000000002","88.49500000000005","21.0","7.0","0.0","8.0","9.0","120.0","1.0","0.0","0.0","1.0","56.71","131.6355755728964","3.040411648843268","487.5498709507596"
"B-2632","heptenophos","InChI=1S/C9H12ClO4P/c1-12-15(11,13-2)14-9-7-5-3-4-6(7)8(9)10/h3-4,6-7H,5H2,1-2H3","GBAWQJNHVWMTLU-UHFFFAOYSA-N","CO[P](=O)(OC)OC1=C(Cl)C2C=CCC12","-2.0011","0.0","1","G1","250.618","3.060200000000002","56.32550000000002","15.0","4.0","0.0","6.0","4.0","84.0","0.0","0.0","2.0","2.0","44.760000000000005","93.46143216145283","2.115993973508301","368.30863402499347"