"ID","Name","InChI","InChIKey","SMILES","Solubility","SD","Ocurrences","Group","MolWt","MolLogP","MolMR","HeavyAtomCount","NumHAcceptors","NumHDonors","NumHeteroatoms","NumRotatableBonds","NumValenceElectrons","NumAromaticRings","NumSaturatedRings","NumAliphaticRings","RingCount","TPSA","LabuteASA","BalabanJ","BertzCT"
"B-1805","endosulfan diol","InChI=1S/C9H8Cl6O2/c10-5-6(11)8(13)4(2-17)3(1-16)7(5,12)9(8,14)15/h3-4,16-17H,1-2H2","GTSJHTSVFKEASK-UHFFFAOYSA-N","OCC1C(CO)C2(Cl)C(=C(Cl)C1(Cl)C2(Cl)Cl)Cl","-3.0802","0.0","1","G1","360.8789999999999","3.0489","71.48860000000002","17.0","2.0","2.0","8.0","2.0","98.0","0.0","1.0","2.0","2.0","40.46","128.36558746944175","2.716115159554925","362.9473173404904"
"B-1806","benzoic acid, 2-(4-bromobenzoyl)-","InChI=1S/C14H9BrO3/c15-10-7-5-9(6-8-10)13(16)11-3-1-2-4-12(11)14(17)18/h1-8H,(H,17,18)","NONNFIAFWRSPPY-UHFFFAOYSA-N","OC(=O)c1ccccc1C(=O)c2ccc(Br)cc2","-3.0074","0.0","1","G1","305.12699999999995","3.378300000000001","70.97580000000002","18.0","2.0","1.0","4.0","3.0","90.0","2.0","0.0","0.0","2.0","54.37","112.20320711227912","2.459795907470056","602.6910984790119"
"B-1807","4-ethylamino-6-isopropylamino-s-triazin-2-ol","InChI=1S/C8H15N5O/c1-4-9-6-11-7(10-5(2)3)13-8(14)12-6/h5H,4H2,1-3H3,(H3,9,10,11,12,13,14)","NFMIMWNQWAWNDW-UHFFFAOYSA-N","CCNC1=NC(=O)N=C(NC(C)C)N1","-4.5241","0.0","1","G1","197.24200000000002","0.4169999999999994","55.57510000000002","14.0","5.0","3.0","6.0","4.0","78.0","1.0","0.0","0.0","1.0","82.69999999999999","82.17630410157938","2.8902051322153888","345.83002983390577"
"B-1809","msma","InChI=1S/CH5AsO3.Na/c1-2(3,4)5;/h1H3,(H2,3,4,5);/q;+1/p-1","JITOKQVGRJSHHA-UHFFFAOYSA-M","[Na+].C[As](O)([O-])=O","0.5539999999999999","0.0","1","G1","161.952","-4.657799999999999","14.5233","6.0","2.0","1.0","5.0","0.0","32.0","0.0","0.0","0.0","0.0","60.36","61.037451427598306","0.0","56.92878689342032"
"B-1810","lenacil","InChI=1S/C13H18N2O2/c16-12-10-7-4-8-11(10)14-13(17)15(12)9-5-2-1-3-6-9/h9H,1-8H2,(H,14,17)","ZTMKADLOSYKWCA-UHFFFAOYSA-N","O=C1NC2=C(CCC2)C(=O)N1C3CCCCC3","-4.5916","0.0","1","G1","234.29899999999995","1.5305","65.46970000000003","17.0","3.0","1.0","4.0","1.0","92.0","1.0","1.0","2.0","3.0","54.86","99.67653149058387","2.100410447007261","535.3309360482766"
"B-1811","dicryl","InChI=1S/C10H9Cl2NO/c1-6(2)10(14)13-7-3-4-8(11)9(12)5-7/h3-5H,1H2,2H3,(H,13,14)","VCBRBUKGTWLJOB-UHFFFAOYSA-N","CC(=C)C(=O)Nc1ccc(Cl)c(Cl)c1","-4.4325","0.0","1","G1","230.094","3.508000000000002","59.905700000000024","14.0","1.0","1.0","4.0","2.0","74.0","1.0","0.0","0.0","1.0","29.1","92.51948528231429","2.831519833414496","387.70843012639205"
"B-1812","bcpc","InChI=1S/C11H14ClNO2/c1-3-8(2)15-11(14)13-10-6-4-5-9(12)7-10/h4-8H,3H2,1-2H3,(H,13,14)","CURLHBZYTFVCRG-UHFFFAOYSA-N","CCC(C)OC(=O)Nc1cccc(Cl)c1","-3.1727","0.0","1","G1","227.691","3.687000000000002","61.30870000000003","15.0","2.0","1.0","4.0","3.0","82.0","1.0","0.0","0.0","1.0","38.33","94.38430943152036","2.511727299171399","341.11473577962784"
"B-1813","naphthalene, 2-(2-methylpropoxy)-","InChI=1S/C14H16O/c1-11(2)10-15-14-8-7-12-5-3-4-6-13(12)9-14/h3-9,11H,10H2,1-2H3","XOHIHZHSDMWWMS-UHFFFAOYSA-N","CC(C)COc1ccc2ccccc2c1","-5.2117","0.5838694118500003","2","G2","200.281","3.8746000000000027","64.28100000000003","15.0","1.0","0.0","1.0","3.0","78.0","2.0","0.0","0.0","2.0","9.23","90.6863813383255","2.228482483774148","445.78790614904244"
"B-1815","2,7-dichloronaphthalene","InChI=1S/C10H6Cl2/c11-9-3-1-7-2-4-10(12)6-8(7)5-9/h1-6H","DWBQZSYTSNYEEJ-UHFFFAOYSA-N","Clc1ccc2ccc(Cl)cc2c1","-5.9217","0.0","1","G1","197.064","4.146600000000001","53.968000000000025","12.0","0.0","0.0","2.0","0.0","60.0","2.0","0.0","0.0","2.0","0.0","80.71960010499551","2.797846408466882","384.3581352532283"
"B-1816","1h-pyrrole-2-carboxylic acid, 3,5-dimethyl-, eth","InChI=1S/C9H13NO2/c1-4-12-9(11)8-6(2)5-7(3)10-8/h5,10H,4H2,1-3H3","IZSBSZYFPYIJDI-UHFFFAOYSA-N","CCOC(=O)c1[nH]c(C)cc1C","-2.6212","0.0","1","G1","167.208","1.80824","46.22320000000003","12.0","2.0","1.0","3.0","2.0","66.0","1.0","0.0","0.0","1.0","42.09","71.74034144204494","2.86584548320798","288.71868404195976"
"B-1817","1,3-benzenedicarboxylic acid, 4-methoxy-","InChI=1S/C9H8O5/c1-14-7-3-2-5(8(10)11)4-6(7)9(12)13/h2-4H,1H3,(H,10,11)(H,12,13)","JIICYHFLIOGGHE-UHFFFAOYSA-N","COc1ccc(cc1C(O)=O)C(O)=O","-3.1165","0.0","1","G1","196.158","1.0916","46.912600000000005","14.0","3.0","2.0","5.0","3.0","74.0","1.0","0.0","0.0","1.0","83.83000000000001","79.55128639667323","3.2744144453933877","382.78874558784804"
"B-1818","1,2-dimethylcyclohexane (cis)","InChI=1S/C8H16/c1-7-5-3-4-6-8(7)2/h7-8H,3-6H2,1-2H3/t7-,8+","KVZJLSYJROEPSQ-OCAPTIKFSA-N","C[C@H]1CCCC[C@H]1C","-4.2719","0.4999499999999999","2","G3","112.216","2.832600000000001","36.79599999999999","8.0","0.0","0.0","0.0","0.0","48.0","0.0","1.0","1.0","1.0","0.0","52.28801467507656","2.2794002709583667","56.43856189774725"
"B-1820","butane, 2,3-dichloro-, (r*,r*)-(.+-.)-","InChI=1S/C4H8Cl2/c1-3(5)4(2)6/h3-4H,1-2H3/t3-,4-/m1/s1","RMISVOPUIFJTEO-QWWZWVQMSA-N","C[C@@H](Cl)[C@@H](C)Cl","-2.3541","0.0","1","G1","127.014","2.2410000000000005","30.62999999999999","6.0","0.0","0.0","2.0","1.0","38.0","0.0","0.0","0.0","0.0","0.0","48.440609824782726","2.9934972434784735","26.52932501298081"
"B-1821","1-naphthalenecarboxylic acid, 8-nitro-","InChI=1S/C11H7NO4/c13-11(14)8-5-1-3-7-4-2-6-9(10(7)8)12(15)16/h1-6H,(H,13,14)","USMKVLABRYGBJX-UHFFFAOYSA-N","OC(=O)c1cccc2cccc(c12)[N+]([O-])=O","-2.7501","0.0","1","G1","217.17999999999998","2.446200000000001","57.5617","16.0","3.0","1.0","5.0","2.0","80.0","2.0","0.0","0.0","2.0","80.44","90.08674134036835","2.924515991348853","542.8042984015815"
"B-1822","4-methyloctane","InChI=1S/C9H20/c1-4-6-8-9(3)7-5-2/h9H,4-8H2,1-3H3","DOGIHOCMZJUJNR-UHFFFAOYSA-N","CCCCC(C)CCC","-6.0474","0.0","1","G1","128.259","3.6128000000000027","43.59700000000001","9.0","0.0","0.0","0.0","5.0","56.0","0.0","0.0","0.0","0.0","0.0","59.658787943002416","2.9548225727898","48.0"
"B-1824","naphthalene, 1-methoxy-","InChI=1S/C11H10O/c1-12-11-8-4-6-9-5-2-3-7-10(9)11/h2-8H,1H3","NQMUGNMMFTYOHK-UHFFFAOYSA-N","COc1cccc2ccccc12","-4.1992","0.0","1","G1","158.2","2.8484000000000007","50.50000000000003","12.0","1.0","0.0","1.0","1.0","60.0","2.0","0.0","0.0","2.0","9.23","71.59155499513565","2.7909670297392646","387.63117497912054"
"B-1825","(+)-fenchol","InChI=1S/C10H18O/c1-9(2)7-4-5-10(3,6-7)8(9)11/h7-8,11H,4-6H2,1-3H3/t7-,8-,10+/m1/s1","IAIHUHQCLTYTSF-MRTMQBJTSA-N","CC1(C)[C@@H]2CC[C@@](C)(C2)[C@@H]1O","-2.2702","0.0","1","G1","154.25300000000001","2.1935000000000007","45.23580000000002","11.0","1.0","1.0","1.0","0.0","64.0","0.0","2.0","2.0","2.0","20.23","68.80630150253658","2.338936599612258","180.5569111106811"
"B-1826","pentane, 3,3-bis(ethylsulfonyl)-","InChI=1S/C9H20O4S2/c1-5-9(6-2,14(10,11)7-3)15(12,13)8-4/h5-8H2,1-4H3","VTZYVPLHCQBWSP-UHFFFAOYSA-N","CCC(CC)([S](=O)(=O)CC)[S](=O)(=O)CC","-2.0625","0.0","1","G1","256.38899999999995","1.3721","62.23460000000004","15.0","4.0","0.0","6.0","6.0","92.0","0.0","0.0","0.0","0.0","68.28","92.90958470657557","5.886107682895368","351.828281512136"
"B-1827","tetrasul","InChI=1S/C12H6Cl4S/c13-7-1-3-8(4-2-7)17-12-6-10(15)9(14)5-11(12)16/h1-6H","QUWSDLYBOVGOCW-UHFFFAOYSA-N","Clc1ccc(Sc2cc(Cl)c(Cl)cc2Cl)cc1","-7.0335","0.0","1","G1","324.05899999999997","6.451400000000001","77.04700000000001","17.0","1.0","0.0","5.0","2.0","88.0","2.0","0.0","0.0","2.0","0.0","123.82467225845292","2.2962610484217487","536.9470467453648"
"B-1828","dienochlor","InChI=1S/C10Cl10/c11-1-2(12)6(16)9(19,5(1)15)10(20)7(17)3(13)4(14)8(10)18","LWLJUMBEZJHXHV-UHFFFAOYSA-N","ClC1=C(Cl)C(Cl)(C(=C1Cl)Cl)C2(Cl)C(=C(Cl)C(=C2Cl)Cl)Cl","-7.2784","0.0","1","G1","474.64","7.725599999999999","92.09599999999999","20.0","0.0","0.0","10.0","1.0","110.0","0.0","0.0","2.0","2.0","0.0","164.2863178904203","2.8191239714596747","530.4237512704517"
"B-1829","2-cyclohexen-1-one, oxime, (z)-","InChI=1S/C6H9NO/c8-7-6-4-2-1-3-5-6/h2,4,8H,1,3,5H2/b7-6+","WNPVAXLJVUXYFU-VOTSOKGWSA-N","O\N=C/1CCCC=C1","-0.9667","0.0","1","G1","111.14399999999999","1.5567","32.21249999999999","8.0","2.0","1.0","2.0","0.0","44.0","0.0","0.0","1.0","1.0","32.59","48.512122151633214","2.5621664007011264","126.49022499567306"
"B-1830","octachloronaphthalene","InChI=1S/C10Cl8/c11-3-1-2(5(13)9(17)7(3)15)6(14)10(18)8(16)4(1)12","RTNLUFLDZOAXIC-UHFFFAOYSA-N","Clc1c(Cl)c(Cl)c2c(Cl)c(Cl)c(Cl)c(Cl)c2c1Cl","-9.703","0.0","1","G1","403.73400000000004","8.067","84.028","18.0","0.0","0.0","8.0","0.0","96.0","2.0","0.0","0.0","2.0","0.0","142.53919746628554","3.2161246449441507","562.85273182753"
"B-1831","m-aminobenzonitrile","InChI=1S/C7H6N2/c8-5-6-2-1-3-7(9)4-6/h1-4H,9H2","NJXPYZHXZZCTNI-UHFFFAOYSA-N","Nc1cccc(c1)C#N","-1.1693","0.0","1","G1","118.139","1.1404800000000002","35.569400000000016","9.0","2.0","1.0","2.0","0.0","44.0","1.0","0.0","0.0","1.0","49.81","53.528815612375","3.1192017919205197","247.33821798626076"
"B-1832","nonanonitrile","InChI=1S/C9H17N/c1-2-3-4-5-6-7-8-9-10/h2-8H2,1H3","PLZZPPHAMDJOSR-UHFFFAOYSA-N","CCCCCCCCC#N","-3.2987","0.0","1","G1","139.242","3.260580000000002","43.606000000000016","10.0","1.0","0.0","1.0","6.0","58.0","0.0","0.0","0.0","0.0","23.79","64.05136762447114","2.723360598747554","91.39161360323428"
"B-1834","2-phenethylisothiocyanate","InChI=1S/C9H9NS/c11-8-10-7-6-9-4-2-1-3-5-9/h1-5H,6-7H2","IZJDOKYDEWTZSO-UHFFFAOYSA-N","S=C=NCCc1ccccc1","-3.1714","0.0","1","G1","163.245","2.3319","50.03900000000002","11.0","2.0","0.0","2.0","3.0","56.0","1.0","0.0","0.0","1.0","12.36","71.7803321957518","2.4484927862349912","249.5250600730738"
"B-1835","2,3,3-trichloro-2-propenoic acid","InChI=1S/C3HCl3O2/c4-1(2(5)6)3(7)8/h(H,7,8)/p-1","WMUBNWIGNSIRDH-UHFFFAOYSA-M","[O-]C(=O)C(Cl)=C(Cl)Cl","-0.4659","0.0","1","G1","174.39000000000001","0.6217999999999999","29.592","8.0","2.0","0.0","5.0","1.0","46.0","0.0","0.0","0.0","0.0","40.129999999999995","60.64508675732331","4.2266192868964705","135.4639615981846"
"B-1836","1h-purine, 8-(trifluoromethyl)-","InChI=1S/C6H3F3N4/c7-6(8,9)5-12-3-1-10-2-11-4(3)13-5/h1-2H,(H,10,11,12,13)","YGINUNRCDDYFKD-UHFFFAOYSA-N","FC(F)(F)c1[nH]c2cncnc2n1","-0.4505","0.0","1","G1","188.112","1.3716999999999997","36.685700000000004","13.0","3.0","1.0","7.0","0.0","68.0","2.0","0.0","0.0","2.0","54.46","69.84272033826132","2.625835905305616","399.6171391663772"
"B-1837","5-phenylpentanoic acid","InChI=1S/C11H14O2/c12-11(13)9-5-4-8-10-6-2-1-3-7-10/h1-3,6-7H,4-5,8-9H2,(H,12,13)","BYHDDXPKOZIZRV-UHFFFAOYSA-N","OC(=O)CCCCc1ccccc1","-2.4657","0.23285","2","G3","178.23100000000002","2.484000000000001","51.63280000000003","13.0","1.0","1.0","2.0","5.0","70.0","1.0","0.0","0.0","1.0","37.3","78.2118695437198","2.168624668395278","254.05260581186826"
"B-1838","7h-purine, 2,6-dichloro-7-methyl-","InChI=1S/C6H4Cl2N4/c1-12-2-9-5-3(12)4(7)10-6(8)11-5/h2H,1H3","HVMUWHZAZGTMJK-UHFFFAOYSA-N","Cn1cnc2nc(Cl)nc(Cl)c12","-1.1522","0.0","1","G1","203.032","1.6700999999999997","46.32400000000001","12.0","4.0","0.0","6.0","0.0","62.0","2.0","0.0","0.0","2.0","43.6","78.16261806984127","2.926885756992558","436.2858603413604"
"B-1839","phosphoric acid,2-chloro-(2,4-dichlorophenyl)vin","InChI=1S/C10H10Cl3O4P/c1-15-18(14,16-2)17-10(6-11)8-4-3-7(12)5-9(8)13/h3-6H,1-2H3/b10-6-","QSGNQELHULIMSJ-POHAHGRESA-N","CO[P](=O)(OC)OC(=C\Cl)/c1ccc(Cl)cc1Cl","-3.4066","0.0","1","G1","331.519","4.948100000000002","73.00150000000002","18.0","4.0","0.0","8.0","5.0","100.0","1.0","0.0","0.0","1.0","44.760000000000005","120.0016135885399","3.086993894763407","495.8962011253302"
"B-1840","prothoate","InChI=1S/C9H20NO3PS2/c1-5-12-14(15,13-6-2)16-7-9(11)10-8(3)4/h8H,5-7H2,1-4H3,(H,10,11)","QTXHFDHVLBDJIO-UHFFFAOYSA-N","CCO[P](=S)(OCC)SCC(=O)NC(C)C","-2.0575","0.0","1","G1","285.37100000000004","2.5417000000000005","73.27370000000003","16.0","5.0","1.0","7.0","8.0","96.0","0.0","0.0","0.0","0.0","47.56","106.76221517923746","4.111101287308404","251.13865282819253"
"B-1841","vamidothion","InChI=1S/C8H18NO4PS2/c1-9-8(10)4-5-15-6-7-16-14(11,12-2)13-3/h4-7H2,1-3H3,(H,9,10)","CUJJSLYROAWARJ-UHFFFAOYSA-N","CNC(=O)CCSCCS[P](=O)(OC)OC","0.5416","0.0","1","G1","287.343","1.9898","70.09120000000004","16.0","6.0","1.0","8.0","9.0","96.0","0.0","0.0","0.0","0.0","64.63000000000001","104.69006566146822","3.465579656243774","244.19280948873626"
"B-1842","1-naphthalenecarboxylic acid, 2-hydroxy-","InChI=1S/C11H8O3/c12-9-6-5-7-3-1-2-4-8(7)10(9)11(13)14/h1-6,12H,(H,13,14)","UPHOPMSGKZNELG-UHFFFAOYSA-N","OC(=O)c1c(O)ccc2ccccc12","-3.1284","0.0","1","G1","188.182","2.2436","52.57210000000002","14.0","2.0","2.0","3.0","1.0","70.0","2.0","0.0","0.0","2.0","57.53","80.22799937006457","2.8951601769882984","502.858845345137"
"B-1843","diallate","InChI=1S/C10H17Cl2NOS/c1-7(2)13(8(3)4)10(14)15-6-9(12)5-11/h5,7-8H,6H2,1-4H3/b9-5-","SPANOECCGNXGNR-UITAMQMPSA-N","CC(C)N(C(C)C)C(=O)SC\C(Cl)=C\Cl","-4.2856","0.0","1","G1","270.225","4.277400000000004","69.75400000000003","15.0","2.0","0.0","5.0","4.0","88.0","0.0","0.0","0.0","0.0","20.310000000000002","105.98512527459047","4.27920995877855","233.57688747399035"
"B-1844","triallate","InChI=1S/C10H16Cl3NOS/c1-6(2)14(7(3)4)10(15)16-5-8(11)9(12)13/h6-7H,5H2,1-4H3","MWBPRDONLNQCFV-UHFFFAOYSA-N","CC(C)N(C(C)C)C(=O)SCC(Cl)=C(Cl)Cl","-4.8818","0.0","1","G1","304.66999999999996","4.843900000000003","74.55000000000003","16.0","2.0","0.0","6.0","4.0","94.0","0.0","0.0","0.0","0.0","20.310000000000002","116.28839150147215","4.395102108176326","267.2377071841887"
"B-1845","trans-cyclohexane-1,2-dicarboxylic acid","InChI=1S/C8H12O4/c9-7(10)5-3-1-2-4-6(5)8(11)12/h5-6H,1-4H2,(H,9,10)(H,11,12)","QSAWQNUELGIYBC-UHFFFAOYSA-N","OC(=O)C1CCCCC1C(O)=O","-1.935","0.0","1","G1","172.18","0.9620000000000002","40.71960000000001","12.0","2.0","2.0","4.0","2.0","68.0","0.0","1.0","1.0","1.0","74.6","70.19952637955613","2.665364343758954","177.23454122869498"
"B-1846","2h-purin-2-one, 1,3-dihydro-","InChI=1S/C5H4N4O/c10-5-6-1-3-4(9-5)8-2-7-3/h1-2H,(H2,6,7,8,9,10)","CRIZPXKICGBNKG-UHFFFAOYSA-N","O=C1Nc2nc[nH]c2C=N1","-1.7136","0.0","1","G1","136.11399999999998","-0.35380000000000006","34.50940000000001","10.0","3.0","2.0","5.0","0.0","50.0","2.0","0.0","0.0","2.0","74.43","55.142694115129764","2.990320309898347","400.94019739120694"
"B-1847","1h-purine-2,6,8(3h)-trione, 7,9-dihydro-1,3,7,9-","InChI=1S/C9H12N4O3/c1-10-5-6(11(2)8(10)15)12(3)9(16)13(4)7(5)14/h1-4H3","QGDOQULISIQFHQ-UHFFFAOYSA-N","CN1C(=O)N(C)C2=C(N(C)C(=O)N2C)C1=O","-0.9527","0.0","1","G1","224.21999999999997","-1.725599999999999","58.64200000000002","16.0","7.0","0.0","7.0","0.0","86.0","2.0","0.0","0.0","2.0","70.93","89.76539271918503","3.3638893607904286","756.1130205486448"
"B-1848","phosalone","InChI=1S/C12H15ClNO4PS2/c1-3-16-19(20,17-4-2)21-8-14-10-6-5-9(13)7-11(10)18-12(14)15/h5-7H,3-4,8H2,1-2H3","IOUNQDKNJZEDEP-UHFFFAOYSA-N","CCO[P](=S)(OCC)SCN1C(=O)Oc2cc(Cl)ccc12","-5.0813","0.07584999999999997","2","G3","367.8160000000001","4.236100000000003","90.61200000000002","21.0","7.0","0.0","9.0","7.0","116.0","2.0","0.0","0.0","2.0","53.6","136.01855823434258","2.2526661246596325","719.6059926791268"
"B-1849","flurenol-butyl","InChI=1S/C18H18O3/c1-2-3-12-21-17(19)18(20)15-10-6-4-8-13(15)14-9-5-7-11-16(14)18/h4-11,20H,2-3,12H2,1H3","PSGPXWYGJGGEEG-UHFFFAOYSA-N","CCCCOC(=O)C1(O)c2ccccc2c3ccccc13","-3.8885","0.0","1","G1","282.33900000000006","3.2462000000000018","80.74380000000004","21.0","3.0","1.0","3.0","4.0","108.0","2.0","0.0","1.0","3.0","46.53","123.7416199401581","2.0677701052489437","630.1685858830326"
"B-1850","cdea","InChI=1S/C6H12ClNO/c1-3-8(4-2)6(9)5-7/h3-5H2,1-2H3","CQQUWTMMFMJEFE-UHFFFAOYSA-N","CCN(CC)C(=O)CCl","-0.243","0.0","1","G1","149.62099999999998","1.0936","38.648","9.0","1.0","0.0","3.0","3.0","54.0","0.0","0.0","0.0","0.0","20.310000000000002","60.7885835969414","3.6437564476124793","91.05865002596164"
"B-1851","propyl benzoate","InChI=1S/C10H12O2/c1-2-8-12-10(11)9-6-4-3-5-7-9/h3-7H,2,8H2,1H3","UDEWPOVQBGFNGE-UHFFFAOYSA-N","CCCOC(=O)c1ccccc1","-2.6701","0.0","1","G1","164.20399999999998","2.2534","47.01550000000003","12.0","2.0","0.0","2.0","3.0","64.0","1.0","0.0","0.0","1.0","26.3","72.16623890663405","2.539556056342092","241.27530899395387"
"B-1852","benzenemethanol, 5-bromo-2-hydroxy-","InChI=1S/C7H7BrO2/c8-6-1-2-7(10)5(3-6)4-9/h1-3,9-10H,4H2","KNKRHSVKIORZQB-UHFFFAOYSA-N","OCc1cc(Br)ccc1O","-0.2072","0.0","1","G1","203.035","1.647","41.72960000000002","10.0","2.0","2.0","3.0","1.0","54.0","1.0","0.0","0.0","1.0","40.46","67.25236034392695","3.090683646458197","235.04775799182192"
"B-1853","butanedioic acid, (1-methylethyl)-","InChI=1S/C7H12O4/c1-4(2)5(7(10)11)3-6(8)9/h4-5H,3H2,1-2H3,(H,8,9)(H,10,11)","RKAFKUROUOLPOL-UHFFFAOYSA-N","CC(C)C(CC(O)=O)C(O)=O","-0.4073","0.0","1","G1","160.16899999999998","0.8179000000000001","38.216599999999985","11.0","2.0","2.0","4.0","4.0","64.0","0.0","0.0","0.0","0.0","74.6","64.84041541868874","4.11529460833615","161.82350886146327"
"B-1854","n-acetyl-l-phenylalanine, ethyl ester","InChI=1S/C13H17NO3/c1-3-17-13(16)12(14-10(2)15)9-11-7-5-4-6-8-11/h4-8,12H,3,9H2,1-2H3,(H,14,15)/t12-/m0/s1","YIVZYFDBEPMPNL-LBPRGKRZSA-N","CCOC(=O)[C@H](Cc1ccccc1)NC(C)=O","-1.7557","0.0","1","G1","235.28300000000002","1.2969","64.38370000000003","17.0","3.0","1.0","4.0","5.0","92.0","1.0","0.0","0.0","1.0","55.4","100.97244953347568","2.695351301044562","375.5107816340442"
"B-1855","1,2,3,5-tetrafluorobenzene","InChI=1S/C6H2F4/c7-3-1-4(8)6(10)5(9)2-3/h1-2H","UHHYOKRQTQBKSB-UHFFFAOYSA-N","Fc1cc(F)c(F)c(F)c1","-2.3057","0.0","1","G1","150.074","2.2430000000000003","26.274","10.0","0.0","0.0","4.0","0.0","54.0","1.0","0.0","0.0","1.0","0.0","54.09354473120191","3.310532874722407","232.91988337222986"
"B-1856","2,2-dimethyl-1-pentanol","InChI=1S/C7H16O/c1-4-5-7(2,3)6-8/h8H,4-6H2,1-3H3","QTOMCRXZFDHJOL-UHFFFAOYSA-N","CCCC(C)(C)CO","-1.4391","0.5099753392730542","3","G4","116.20399999999998","1.8050000000000002","35.77479999999999","8.0","1.0","1.0","1.0","3.0","50.0","0.0","0.0","0.0","0.0","20.23","51.723137466405205","3.373381552563661","57.4071655715584"
"B-1857","3,4-(methylenedioxy)cinnamic acid","InChI=1S/C10H8O4/c11-10(12)4-2-7-1-3-8-9(5-7)14-6-13-8/h1-5H,6H2,(H,11,12)/b4-2-","QFQYZMGOKIROEC-RQOWECAXSA-N","OC(=O)\C=C/c1ccc2OCOc2c1","-3.8523","0.0","1","G1","192.16999999999996","1.5131000000000001","49.23480000000002","14.0","3.0","1.0","4.0","2.0","72.0","1.0","0.0","1.0","2.0","55.760000000000005","80.37858370262344","2.2452664748461397","395.108513716102"
"B-1859","10-methyl-benz(a)anthracene","InChI=1S/C19H14/c1-13-6-7-15-11-16-9-8-14-4-2-3-5-18(14)19(16)12-17(15)10-13/h2-12H,1H3","WUMGYHICFXGLAB-UHFFFAOYSA-N","Cc1ccc2cc3ccc4ccccc4c3cc2c1","-6.644","0.0","1","G1","242.321","5.454620000000004","83.69700000000003","19.0","0.0","0.0","0.0","0.0","90.0","4.0","0.0","0.0","4.0","0.0","111.8413388290992","2.2321129096615655","916.7400111490208"
"B-1860","9-methylbenz(a)anthracene","InChI=1S/C19H14/c1-13-6-7-15-12-19-16(11-17(15)10-13)9-8-14-4-2-3-5-18(14)19/h2-12H,1H3","KYJPMPXTXCFCRM-UHFFFAOYSA-N","Cc1ccc2cc3c(ccc4ccccc34)cc2c1","-6.8162","0.0","1","G1","242.321","5.454620000000004","83.69700000000003","19.0","0.0","0.0","0.0","0.0","90.0","4.0","0.0","0.0","4.0","0.0","111.84133882909921","2.221063067428523","916.7400111490208"
"B-1861","6-methylbenzo(a)pyrene","InChI=1S/C21H14/c1-13-16-7-2-3-8-18(16)19-12-10-15-6-4-5-14-9-11-17(13)21(19)20(14)15/h2-12H,1H3","YFYHJNJCAGHSFA-UHFFFAOYSA-N","Cc1c2ccccc2c3ccc4cccc5ccc1c3c45","-8.5234","0.0","1","G1","266.343","6.045620000000003","92.38900000000005","21.0","0.0","0.0","0.0","0.0","98.0","5.0","0.0","0.0","5.0","0.0","122.50202824096998","2.2577078741048795","1116.7500637406124"