"ID","Name","InChI","InChIKey","SMILES","Solubility","SD","Ocurrences","Group","MolWt","MolLogP","MolMR","HeavyAtomCount","NumHAcceptors","NumHDonors","NumHeteroatoms","NumRotatableBonds","NumValenceElectrons","NumAromaticRings","NumSaturatedRings","NumAliphaticRings","RingCount","TPSA","LabuteASA","BalabanJ","BertzCT"
"B-2413","4-bromo-trans-crotonic acid","InChI=1S/C4H5BrO2/c5-3-1-2-4(6)7/h1-2H,3H2,(H,6,7)/b2-1+","DOTGZROJTAUYFQ-OWOJBTEDSA-N","OC(=O)\C=C\CBr","-0.7403","0.0","1","G1","164.986","1.0221","30.569799999999994","7.0","1.0","1.0","3.0","2.0","40.0","0.0","0.0","0.0","0.0","37.3","49.96777779671625","3.2641672832723474","87.69058447171099"
"B-2414","metiazinic acid","InChI=1S/C15H13NO2S/c1-16-11-4-2-3-5-13(11)19-14-7-6-10(8-12(14)16)9-15(17)18/h2-8H,9H2,1H3,(H,17,18)","LMINNBXUMGNKMM-UHFFFAOYSA-N","CN1c2ccccc2Sc3ccc(CC(O)=O)cc13","-3.9422","0.0","1","G1","271.34099999999995","3.5462000000000016","76.40980000000003","19.0","3.0","1.0","4.0","2.0","96.0","2.0","0.0","1.0","3.0","40.54","115.41619206303001","2.0348525080658","654.3438758768984"
"B-2415","barbituric acid, 5,5-di-2-butenyl-","InChI=1S/C12H16N2O3/c1-3-5-7-12(8-6-4-2)9(15)13-11(17)14-10(12)16/h3-6H,7-8H2,1-2H3,(H2,13,14,15,16,17)/b5-3+,6-4+","OJXLDQJJHBLYOT-GGWOSOGESA-N","C/C=C/CC1(C\C=C\C)C(=O)NC(=O)NC1=O","-2.1973","0.0","1","G1","236.271","1.2711999999999999","62.97640000000003","17.0","3.0","2.0","5.0","4.0","92.0","0.0","1.0","1.0","1.0","75.27000000000001","99.9528677356419","3.0501135124751375","360.55492181215095"
"B-2416","3-furancarboxylic acid, 2-methyl-5-(1,2,3,4-tetr","InChI=1S/C10H14O7/c1-4-5(10(15)16)2-7(17-4)9(14)8(13)6(12)3-11/h2,6,8-9,11-14H,3H2,1H3,(H,15,16)/p-1/t6-,8-,9+/m1/s1","QCJQVLKXEYQMLF-VDAHYXPESA-M","Cc1oc(cc1C([O-])=O)[C@H](O)[C@H](O)[C@H](O)CO","-1.2774","0.0","1","G1","245.207","-2.3009799999999996","51.834700000000026","17.0","7.0","4.0","7.0","5.0","96.0","1.0","0.0","0.0","1.0","134.19","96.54807593097728","2.9293613664038114","397.3587186607418"
"B-2418","4-pteridinamine, n,n-dimethyl-","InChI=1S/C8H9N5/c1-13(2)8-6-7(11-5-12-8)10-4-3-9-6/h3-5H,1-2H3","KXQWQYBKUMVBIB-UHFFFAOYSA-N","CN(C)c1ncnc2nccnc12","-1.0216","0.0","1","G1","175.19500000000002","0.4857999999999999","49.45500000000003","13.0","5.0","0.0","5.0","1.0","66.0","2.0","0.0","0.0","2.0","54.800000000000004","75.48137747401479","2.756733762067337","420.30882955700895"
"B-2419","propanoic acid, 3-ethoxy-, methyl ester","InChI=1S/C6H12O3/c1-3-9-5-4-6(7)8-2/h3-5H2,1-2H3","HSDFKDZBJMDHFF-UHFFFAOYSA-N","CCOCCC(=O)OC","-0.0719","0.0","1","G1","132.159","0.5860000000000001","33.12599999999999","9.0","3.0","0.0","3.0","4.0","54.0","0.0","0.0","0.0","0.0","35.53","54.952574158870114","2.9730624080867365","80.37215811651096"
"B-2420","propanoic acid, 3-ethoxy-, butyl ester","InChI=1S/C9H18O3/c1-3-5-7-12-9(10)6-8-11-4-2/h3-8H2,1-2H3","MVWVAXBILFBQIZ-UHFFFAOYSA-N","CCCCOC(=O)CCOCC","-1.6391","0.0","1","G1","174.23999999999995","1.7563","46.977000000000025","12.0","3.0","0.0","3.0","7.0","72.0","0.0","0.0","0.0","0.0","35.53","74.04740050205993","3.1032830489797623","100.3412753111225"
"B-2421","propionic acid, 3-ethoxy-, pentyl ester","InChI=1S/C10H20O3/c1-3-5-6-8-13-10(11)7-9-12-4-2/h3-9H2,1-2H3","LECMFIIQEQTPNP-UHFFFAOYSA-N","CCCCCOC(=O)CCOCC","-2.1956","0.0","1","G1","188.26699999999994","2.1464","51.59400000000004","13.0","3.0","0.0","3.0","8.0","78.0","0.0","0.0","0.0","0.0","35.53","80.41234261645653","3.105082536306579","123.33826575305267"
"B-2422","propionic acid, 3-ethoxy-, hexyl ester","InChI=1S/C11H22O3/c1-3-5-6-7-9-14-11(12)8-10-13-4-2/h3-10H2,1-2H3","ZASWBHFDPXLANO-UHFFFAOYSA-N","CCCCCCOC(=O)CCOCC","-2.8289","0.0","1","G1","202.29399999999995","2.536500000000001","56.21100000000005","14.0","3.0","0.0","3.0","9.0","84.0","0.0","0.0","0.0","0.0","35.53","86.77728473085314","3.1012237818066595","134.49433360163272"
"B-2423","propionic acid, 3-propoxy-, methyl ester","InChI=1S/C7H14O3/c1-3-5-10-6-4-7(8)9-2/h3-6H2,1-2H3","DMHHINXESLPPMV-UHFFFAOYSA-N","CCCOCCC(=O)OC","-0.6334","0.0","1","G1","146.18599999999998","0.9761","37.743","10.0","3.0","0.0","3.0","5.0","60.0","0.0","0.0","0.0","0.0","35.53","61.317516273266726","2.9617756061821483","90.85200900961469"
"B-2424","propanoic acid, 3-propoxy-, propyl ester","InChI=1S/C9H18O3/c1-3-6-11-8-5-9(10)12-7-4-2/h3-8H2,1-2H3","YTUFRRBSSNRYID-UHFFFAOYSA-N","CCCOCCC(=O)OCCC","-1.6848","0.0","1","G1","174.23999999999995","1.7563","46.977000000000025","12.0","3.0","0.0","3.0","7.0","72.0","0.0","0.0","0.0","0.0","35.53","74.04740050205993","3.0837207939517115","112.3412753111225"
"B-2425","propanoic acid, 3-butoxy-, butyl ester","InChI=1S/C11H22O3/c1-3-5-8-13-10-7-11(12)14-9-6-4-2/h3-10H2,1-2H3","BMOACRKLCOIODC-UHFFFAOYSA-N","CCCCOCCC(=O)OCCCC","-2.4029","0.0","1","G1","202.29399999999995","2.536500000000001","56.21100000000005","14.0","3.0","0.0","3.0","9.0","84.0","0.0","0.0","0.0","0.0","35.53","86.77728473085314","3.1012237818066595","134.49433360163272"
"B-2427","Dibenzo-18-crown-6","InChI=1S/C20H24O6/c1-2-6-18-17(5-1)23-13-9-21-11-15-25-19-7-3-4-8-20(19)26-16-12-22-10-14-24-18/h1-8H,9-16H2","YSSSPARMOAYJTE-UHFFFAOYSA-N","C1COc2ccccc2OCCOCCOc3ccccc3OCCO1","-4.6935","0.0","1","G1","360.40600000000006","2.948800000000001","96.50200000000005","26.0","6.0","0.0","6.0","0.0","140.0","2.0","0.0","1.0","3.0","55.38000000000001","153.08347446424597","1.5586948703326233","548.7545953273558"
"B-2428","difenoxuron","InChI=1S/C16H18N2O3/c1-18(2)16(19)17-12-4-6-14(7-5-12)21-15-10-8-13(20-3)9-11-15/h4-11H,1-3H3,(H,17,19)","AMVYOVYGIJXTQB-UHFFFAOYSA-N","COc1ccc(Oc2ccc(NC(=O)N(C)C)cc2)cc1","-4.1558","0.0","1","G1","286.331","3.581000000000002","82.21570000000004","21.0","3.0","1.0","5.0","4.0","110.0","2.0","0.0","0.0","2.0","50.800000000000004","123.64657419601637","1.9952304115596737","591.9240832402107"
"B-2429","fenazaflor","InChI=1S/C15H7Cl2F3N2O2/c16-9-6-11-12(7-10(9)17)22(13(21-11)15(18,19)20)14(23)24-8-4-2-1-3-5-8/h1-7H","ISVQSVPUDBVFFU-UHFFFAOYSA-N","FC(F)(F)c1nc2cc(Cl)c(Cl)cc2n1C(=O)Oc3ccccc3","-4.4603","0.0","1","G1","375.1330000000001","5.409000000000001","82.619","24.0","4.0","0.0","9.0","1.0","124.0","3.0","0.0","0.0","3.0","44.120000000000005","142.91703196673825","2.167177373898223","923.854131014209"
"B-2431","Valylglycine","InChI=1S/C7H14N2O3/c1-4(2)6(8)7(12)9-3-5(10)11/h4,6H,3,8H2,1-2H3,(H,9,12)(H,10,11)","IOUPEELXVYPCPG-UHFFFAOYSA-N","CC(C)C(N)C(=O)NCC(O)=O","0.4579","0.0","1","G1","174.2","-0.829499999999999","43.4589","12.0","3.0","3.0","5.0","4.0","70.0","0.0","0.0","0.0","0.0","92.42000000000002","70.9359345471135","3.796840061984721","179.4903018475817"
"B-2432","1,3-benzenedicarboxamide, n,n,n',n'-tetramethyl-","InChI=1S/C12H16N2O2/c1-13(2)11(15)9-6-5-7-10(8-9)12(16)14(3)4/h5-8H,1-4H3","SVWDHNLFFDIWHM-UHFFFAOYSA-N","CN(C)C(=O)c1cccc(c1)C(=O)N(C)C","0.48700000000000004","0.0","1","G1","220.27199999999996","1.0902","62.47700000000003","16.0","2.0","0.0","4.0","2.0","86.0","1.0","0.0","0.0","1.0","40.620000000000005","95.46376734637089","3.0453910962535975","375.98471678603164"
"B-2433","butanoic acid, 4,4'-diselenobis-","InChI=1S/C8H14O4Se2/c9-7(10)3-1-5-13-14-6-2-4-8(11)12/h1-6H2,(H,9,10)(H,11,12)","WORSJCPMKUOXAD-UHFFFAOYSA-N","OC(=O)CCC[Se][Se]CCCC(O)=O","-2.2471","0.0","1","G1","332.11600000000016","0.8759999999999999","54.861600000000024","14.0","2.0","2.0","6.0","9.0","82.0","0.0","0.0","0.0","0.0","74.6","94.31883380052358","2.9895441287192144","164.18009270430096"
"B-2434","ethyl 4-chlorophenoxyacetate","InChI=1S/C10H11ClO3/c1-2-13-10(12)7-14-9-5-3-8(11)4-6-9/h3-6H,2,7H2,1H3","QULRDJFRGVHKLN-UHFFFAOYSA-N","CCOC(=O)COc1ccc(Cl)cc1","-2.4206","0.0","1","G1","214.648","2.2819000000000003","53.58000000000003","14.0","3.0","0.0","4.0","4.0","76.0","1.0","0.0","0.0","1.0","35.53","87.5830503630226","2.379180758892864","294.7403499173812"
"B-2435","chlorfenprop methyl","InChI=1S/C10H10Cl2O2/c1-14-10(13)9(12)6-7-2-4-8(11)5-3-7/h2-5,9H,6H2,1H3","YJKIALIXRCSISK-UHFFFAOYSA-N","COC(=O)C(Cl)Cc1ccc(Cl)cc1","-3.7655","0.0","1","G1","233.09400000000002","2.6629000000000005","56.813000000000024","14.0","2.0","0.0","4.0","3.0","76.0","1.0","0.0","0.0","1.0","26.3","92.7727713603974","2.601411312406869","308.402966410215"
"B-2436","3-(2-methylphenoxy)pyridazine","InChI=1S/C11H10N2O/c1-9-5-2-3-6-10(9)14-11-7-4-8-12-13-11/h2-8H,1H3","DNPSYFHJYIRREW-UHFFFAOYSA-N","Cc1ccccc1Oc2cccnn2","-1.969","0.0","1","G1","186.21400000000003","2.5773200000000003","53.285000000000025","14.0","3.0","0.0","3.0","2.0","70.0","2.0","0.0","0.0","2.0","35.010000000000005","82.37473419976222","2.2369588843757167","414.6425251069129"
"B-2437","1,2,4-triazolidine-3,5-dione, 4-methyl-1-phenyl-","InChI=1S/C9H9N3O2/c1-11-8(13)10-12(9(11)14)7-5-3-2-4-6-7/h2-6H,1H3,(H,10,13)","XVVORNVNYKBZKT-UHFFFAOYSA-N","CN1C(=O)NN(C1=O)c2ccccc2","-2.9804","0.0","1","G1","191.19000000000003","-0.13570000000000104","51.63070000000002","14.0","4.0","1.0","5.0","1.0","72.0","2.0","0.0","0.0","2.0","59.79","79.21333656454784","2.7051390520671648","547.4263106241532"
"B-2438","benzamide, 2-(2-propenyloxy)-","InChI=1S/C10H11NO2/c1-2-7-13-9-6-4-3-5-8(9)10(11)12/h2-6H,1,7H2,(H2,11,12)","FZEIWORKISALCO-UHFFFAOYSA-N","NC(=O)c1ccccc1OCC=C","-2.2273","0.0","1","G1","177.20299999999995","1.3503","50.65190000000001","13.0","2.0","1.0","3.0","4.0","68.0","1.0","0.0","0.0","1.0","52.32000000000001","76.81652657146249","2.90309759651014","320.4557138372428"
"B-2441","2,5-piperazinedione, 3-(1-methylethyl)-","InChI=1S/C7H12N2O2/c1-4(2)6-7(11)8-3-5(10)9-6/h4,6H,3H2,1-2H3,(H,8,11)(H,9,10)","IULFBTHVPRNQCG-UHFFFAOYSA-N","CC(C)C1NC(=O)CNC1=O","-0.8926","0.0","1","G1","156.18499999999997","-0.7430000000000001","39.778400000000005","11.0","2.0","2.0","4.0","1.0","62.0","0.0","1.0","1.0","1.0","58.2","65.34584112798358","2.611626791152648","188.87959510731497"
"B-2443","3-heptanol, 4-methyl- (van8ci9ci)","InChI=1S/C8H18O/c1-4-6-7(3)8(9)5-2/h7-9H,4-6H2,1-3H3","BKQICAFAUMRYLZ-UHFFFAOYSA-N","CCCC(C)C(O)CC","-1.9636","0.0","1","G1","130.23099999999997","2.1935000000000002","40.369800000000005","9.0","1.0","1.0","1.0","4.0","56.0","0.0","0.0","0.0","0.0","20.23","58.088079580801804","3.324760174025222","61.58797503894244"
"B-2444","1,6-dioxaspiro[4,4]nonane, 2,2,7,7-tetramethyl-","InChI=1S/C11H20O2/c1-9(2)5-7-11(12-9)8-6-10(3,4)13-11/h5-8H2,1-4H3","NJYRFKSWBDHCQL-UHFFFAOYSA-N","CC1(C)CCC2(CCC(C)(C)O2)O1","-1.9644","0.0","1","G1","184.279","2.8607000000000014","51.52700000000004","13.0","2.0","0.0","2.0","0.0","76.0","0.0","2.0","2.0","2.0","18.46","80.60410032375094","2.098094568640847","194.13016856543945"
"B-2445","phenol, 2,2'-sulfonylbis-","InChI=1S/C12H10O4S/c13-9-5-1-3-7-11(9)17(15,16)12-8-4-2-6-10(12)14/h1-8,13-14H","QUWAJPZDCZDTJS-UHFFFAOYSA-N","Oc1ccccc1[S](=O)(=O)c2ccccc2O","-3.3192","0.0","1","G1","250.275","1.9306000000000005","61.665400000000034","17.0","4.0","2.0","5.0","2.0","88.0","2.0","0.0","0.0","2.0","74.6","98.70236321173964","2.674969922699457","595.5601341830188"
"B-2446","dl-phenylalanine, n-(2-cyanoethyl)-","InChI=1S/C12H14N2O2/c13-7-4-8-14-11(12(15)16)9-10-5-2-1-3-6-10/h1-3,5-6,11,14H,4,8-9H2,(H,15,16)/t11-/m0/s1","RDEPSYXOVXRWGR-NSHDSACASA-N","[O-]C(=O)[C@H](Cc1ccccc1)[NH2+]CCC#N","-1.4939","0.0","1","G1","218.25599999999997","-1.1753199999999993","55.96340000000003","16.0","3.0","1.0","4.0","6.0","84.0","1.0","0.0","0.0","1.0","80.53","94.51925352319316","2.5206951904685395","370.35519215780533"
"B-2447","1,1,2,3,3-pentachloropropane","InChI=1S/C3H3Cl5/c4-1(2(5)6)3(7)8/h1-3H","PANVCEBTPSTUEL-UHFFFAOYSA-N","ClC(Cl)C(Cl)C(Cl)Cl","-2.7223","0.0","1","G1","216.322","3.2012","40.62900000000001","8.0","0.0","0.0","5.0","2.0","50.0","0.0","0.0","0.0","0.0","0.0","72.98546639103112","3.464226847231096","52.69412204936134"
"B-2448","l-tyrosine, 3,5-dichloro-","InChI=1S/C9H9Cl2NO3/c10-5-1-4(2-6(11)8(5)13)3-7(12)9(14)15/h1-2,7,13H,3,12H2,(H,14,15)","MPHURJQUHZHALJ-UHFFFAOYSA-N","NC(Cc1cc(Cl)c(O)c(Cl)c1)C(O)=O","-1.7546","0.0","1","G1","250.081","1.6533999999999998","57.44200000000001","15.0","3.0","3.0","6.0","3.0","82.0","1.0","0.0","0.0","1.0","83.55000000000001","96.22264221789865","2.9237270307423464","371.9390010832792"
"B-2449","glutaric acid, 3-hydroxy-3-(phenylcarbamoyl)-","InChI=1S/C12H13NO6/c14-9(15)6-12(19,7-10(16)17)11(18)13-8-4-2-1-3-5-8/h1-5,19H,6-7H2,(H,13,18)(H,14,15)(H,16,17)","XIQLELWZTXRHIC-UHFFFAOYSA-N","OC(=O)CC(O)(CC(O)=O)C(=O)Nc1ccccc1","-0.4874","0.0","1","G1","267.237","0.3055999999999997","64.52710000000002","19.0","4.0","4.0","7.0","6.0","102.0","1.0","0.0","0.0","1.0","123.93","108.038185546204","2.879041176282545","468.2527922971799"
"B-2450","benzoic acid, 4-hydroxy-3-iodo-, methyl ester","InChI=1S/C8H7IO3/c1-12-8(11)5-2-3-7(10)6(9)4-5/h2-4,10H,1H3","PXNOLLHARLSLHY-UHFFFAOYSA-N","COC(=O)c1ccc(O)c(I)c1","-3.3138","0.0","1","G1","278.04499999999996","1.7833999999999999","52.16330000000002","12.0","3.0","1.0","4.0","1.0","64.0","1.0","0.0","0.0","1.0","46.53","83.49242655108048","3.0455637915397915","309.1713244639388"
"B-2451","benzoic acid, 4-hydroxy-3-iodo-, ethyl ester","InChI=1S/C9H9IO3/c1-2-13-9(12)6-3-4-8(11)7(10)5-6/h3-5,11H,2H2,1H3","HOAXKZYYZXASLJ-UHFFFAOYSA-N","CCOC(=O)c1ccc(O)c(I)c1","-3.4924","0.0","1","G1","292.072","2.1734999999999998","56.780300000000025","13.0","3.0","1.0","4.0","2.0","70.0","1.0","0.0","0.0","1.0","46.53","89.85736866547707","2.9029492111309567","322.6358947688087"
"B-2452","benzoic acid, 4-hydroxy-3-iodo-, propyl ester","InChI=1S/C10H11IO3/c1-2-5-14-10(13)7-3-4-9(12)8(11)6-7/h3-4,6,12H,2,5H2,1H3","GEFATVANQYOXLC-UHFFFAOYSA-N","CCCOC(=O)c1ccc(O)c(I)c1","-3.6865","0.0","1","G1","306.09899999999993","2.563600000000001","61.39730000000003","14.0","3.0","1.0","4.0","3.0","76.0","1.0","0.0","0.0","1.0","46.53","96.22231077987368","2.7556196098727357","336.13903760611623"
"B-2453","benzoic acid, 4-hydroxy-3-iodo-, butyl ester","InChI=1S/C11H13IO3/c1-2-3-6-15-11(14)8-4-5-10(13)9(12)7-8/h4-5,7,13H,2-3,6H2,1H3","LDGUZTFKHIQDJC-UHFFFAOYSA-N","CCCCOC(=O)c1ccc(O)c(I)c1","-3.9033","0.0","1","G1","320.126","2.9537000000000013","66.01430000000003","15.0","3.0","1.0","4.0","4.0","82.0","1.0","0.0","0.0","1.0","46.53","102.58725289427029","2.6180849583030543","349.6863125286536"
"B-2454","propanoic acid, 2-(2,4-dichlorophenoxy)-, (r)-","InChI=1S/C9H8Cl2O3/c1-5(9(12)13)14-8-3-2-6(10)4-7(8)11/h2-5H,1H3,(H,12,13)/t5-/m1/s1","MZHCENGPTKEIGP-RXMQYKEDSA-N","C[C@@H](Oc1ccc(Cl)cc1Cl)C(O)=O","-2.6003","0.0","1","G1","235.06599999999997","2.845300000000001","54.18780000000002","14.0","2.0","1.0","5.0","3.0","76.0","1.0","0.0","0.0","1.0","46.53","91.2020629981968","2.817664884623791","351.9103452953617"
"B-2455","tranid","InChI=1S/C10H12ClN3O2/c1-13-10(15)16-14-9-7-3-5(8(9)11)2-6(7)4-12/h5-8H,2-3H2,1H3,(H,13,15)/b14-9-/t5?,6-,7?,8+/m1/s1","QCQPGRMMDFIQMB-WDAIPKEHSA-N","CNC(=O)O\N=C1/[C@@H](Cl)C2C[C@H](C#N)C1C2","-2.0822","0.0","1","G1","241.67799999999997","1.48538","57.93370000000002","16.0","4.0","1.0","6.0","1.0","86.0","0.0","2.0","2.0","2.0","74.47999999999999","98.38220415718773","2.1003699858939844","376.75065664848245"
"B-2456","n,n-diethyl-2-(1-naphthalenyloxy)propanamide","InChI=1S/C17H21NO2/c1-4-18(5-2)17(19)13(3)20-16-12-8-10-14-9-6-7-11-15(14)16/h6-13H,4-5H2,1-3H3","WXZVAROIGSFCFJ-UHFFFAOYSA-N","CCN(CC)C(=O)C(C)Oc1cccc2ccccc12","-3.5702","0.014900000000000135","2","G3","271.36","3.475500000000002","81.96600000000005","20.0","2.0","0.0","3.0","5.0","106.0","2.0","0.0","0.0","2.0","29.540000000000003","119.70256345176247","2.2158696374530527","585.0646273052466"
"B-2458","benzamide, 2-iodo-n-phenyl","InChI=1S/C13H10INO/c14-12-9-5-4-8-11(12)13(16)15-10-6-2-1-3-7-10/h1-9H,(H,15,16)","LJOZMWRYMKECFF-UHFFFAOYSA-N","Ic1ccccc1C(=O)Nc2ccccc2","-4.2084","0.0","1","G1","323.13300000000004","3.5435000000000008","73.55420000000002","16.0","1.0","1.0","3.0","2.0","80.0","2.0","0.0","0.0","2.0","29.1","107.82666184465307","2.186811345762867","496.2955976569277"
"B-2459","1,3-benzodioxole-5-methanol, 6-nitro-","InChI=1S/C8H7NO5/c10-3-5-6(9(11)12)1-2-7-8(5)14-4-13-7/h1-2,10H,3-4H2","LJXBRPHBDWIHPR-UHFFFAOYSA-N","OCc1c2OCOc2ccc1[N+]([O-])=O","-3.0643","0.0","1","G1","197.146","0.8157999999999999","45.14220000000002","14.0","5.0","1.0","6.0","2.0","74.0","1.0","0.0","1.0","2.0","81.82999999999998","78.8297561284705","2.5915050769910337","389.5631830986654"
"B-2460","fluorodifen","InChI=1S/C13H7F3N2O5/c14-13(15,16)8-1-6-12(11(7-8)18(21)22)23-10-4-2-9(3-5-10)17(19)20/h1-7H","HHMCAJWVGYGUEF-UHFFFAOYSA-N","[O-][N+](=O)c1ccc(Oc2ccc(cc2[N+]([O-])=O)C(F)(F)F)cc1","-5.2151","0.0","1","G1","328.202","4.314100000000002","71.2688","23.0","5.0","0.0","10.0","4.0","120.0","2.0","0.0","0.0","2.0","95.50999999999999","125.76954232324277","2.3529844349638056","759.1955750709508"
"B-2461","noxythiolin","InChI=1S/C3H8N2OS/c1-4-7-3-5-2-6/h4-6H,2H2,1H3","BBJPKBLYPSYKMT-UHFFFAOYSA-N","CN[S]#CNCO","-0.0798","0.0","1","G1","120.17699999999999","-0.6899000000000004","30.760199999999998","7.0","3.0","3.0","4.0","1.0","42.0","0.0","0.0","0.0","0.0","44.29","46.46102249214419","2.908625128121578","84.67103446305711"
"B-2462","propanenitrile, 2-(acetyloxy)-","InChI=1S/C5H7NO2/c1-4(3-6)8-5(2)7/h4H,1-2H3","BMJFWKRWVAQUPA-UHFFFAOYSA-N","CC(OC(C)=O)C#N","0.2475","0.0","1","G1","113.11599999999999","0.46157999999999993","26.84099999999999","8.0","3.0","0.0","3.0","1.0","44.0","0.0","0.0","0.0","0.0","50.09","47.866666496435336","3.4298390584447223","124.88058452123624"
"B-2463","cis-platin","InChI=1S/2ClH.2H3N.Pt/h2*1H;2*1H3;/q;;;;+2/p-2","LXZZYRPGZAFOLE-UHFFFAOYSA-L","N.N.[Cl-].[Cl-].[Pt++]","-2.0741","0.0","1","G1","300.046","-5.670500000000001","10.0442","5.0","2.0","2.0","5.0","0.0","40.0","0.0","0.0","0.0","0.0","70.0","58.334253084677066","-0.0","7.609640474436813"
"B-2465","quinoxaline-1,4-dihydro-2,3-dione","InChI=1S/C8H6N2O2/c11-7-8(12)10-6-4-2-1-3-5(6)9-7/h1-4H,(H,9,11)(H,10,12)","ABJFBJGGLJVMAQ-UHFFFAOYSA-N","O=C1Nc2ccccc2NC1=O","-2.812","0.0","1","G1","162.14799999999997","0.21639999999999993","45.189400000000006","12.0","2.0","2.0","4.0","0.0","60.0","2.0","0.0","0.0","2.0","65.72","66.87540781321272","3.03251162187545","475.559165455531"
"B-2466","4,4-dimethyloctane","InChI=1S/C10H22/c1-5-7-9-10(3,4)8-6-2/h5-9H2,1-4H3","ZMEDGZAGMLTROM-UHFFFAOYSA-N","CCCCC(C)(C)CCC","-4.8108","0.0","1","G1","142.286","4.002900000000003","48.21400000000003","10.0","0.0","0.0","0.0","5.0","62.0","0.0","0.0","0.0","0.0","0.0","66.02373005739904","3.4175117585435215","72.10749561002055"
"B-2468","acetic acid, 2,2'-tetrathiobis-","InChI=1S/C4H6O4S4/c5-3(6)1-9-11-12-10-2-4(7)8/h1-2H2,(H,5,6)(H,7,8)","OMDZYSJJXJMDDF-UHFFFAOYSA-N","OC(=O)CSSSSCC(O)=O","-1.452","0.0","1","G1","246.356","1.8334000000000004","55.369600000000005","12.0","6.0","2.0","8.0","7.0","70.0","0.0","0.0","0.0","0.0","74.6","84.43791543600888","3.0073056362946593","143.1368500605771"
"B-2469","ethanol, 2-butoxy-, carbamate","InChI=1S/C7H15NO3/c1-2-3-4-10-5-6-11-7(8)9/h2-6H2,1H3,(H2,8,9)","QHHQZURUTXQADT-UHFFFAOYSA-N","CCCCOCCOC(N)=O","-0.5084","0.0","1","G1","161.201","0.8984000000000001","41.2624","11.0","3.0","1.0","4.0","6.0","66.0","0.0","0.0","0.0","0.0","61.550000000000004","66.65740697027944","2.8497612822334424","105.85880852011198"
"B-2470","pentachlorobenzyl alcohol","InChI=1S/C7H3Cl5O/c8-3-2(1-13)4(9)6(11)7(12)5(3)10/h13H,1H2","RVCKCEDKBVEEHL-UHFFFAOYSA-N","OCc1c(Cl)c(Cl)c(Cl)c(Cl)c1Cl","-5.1467","0.0","1","G1","280.365","4.445900000000001","57.414800000000014","13.0","1.0","1.0","6.0","1.0","72.0","1.0","0.0","0.0","1.0","20.23","100.10691012049793","3.563757676047911","320.2215178022033"
"B-2472","chlorosuccinic acid","InChI=1S/C4H5ClO4/c5-2(4(8)9)1-3(6)7/h2H,1H2,(H,6,7)(H,8,9)","QEGKXSHUKXMDRW-UHFFFAOYSA-N","OC(=O)CC(Cl)C(O)=O","0.0767","0.0","1","G1","152.53300000000002","0.15310000000000018","29.52959999999999","9.0","2.0","2.0","5.0","3.0","52.0","0.0","0.0","0.0","0.0","74.6","56.0488553023806","3.6324321519398444","132.52932501298082"