"ID","Name","InChI","InChIKey","SMILES","Solubility","SD","Ocurrences","Group","MolWt","MolLogP","MolMR","HeavyAtomCount","NumHAcceptors","NumHDonors","NumHeteroatoms","NumRotatableBonds","NumValenceElectrons","NumAromaticRings","NumSaturatedRings","NumAliphaticRings","RingCount","TPSA","LabuteASA","BalabanJ","BertzCT"
"B-2078","morpholine, 4,4',4''-phosphinylidynetris-","InChI=1S/C12H24N3O4P/c16-20(13-1-7-17-8-2-13,14-3-9-18-10-4-14)15-5-11-19-12-6-15/h1-12H2","WXMQHPKQCPCDQO-UHFFFAOYSA-N","O=[P](N1CCOCC1)(N2CCOCC2)N3CCOCC3","0.2984","0.0","1","G1","305.31500000000005","0.09110000000000129","74.78250000000004","20.0","4.0","0.0","8.0","3.0","116.0","0.0","3.0","3.0","3.0","54.480000000000004","119.8144855521028","1.8129924932639865","300.3078350681549"
"B-2079","benzenesulfonamide, 4-amino-n-(4,5-dimethyl-2-py","InChI=1S/C12H14N4O2S/c1-8-7-14-12(15-9(8)2)16-19(17,18)11-5-3-10(13)4-6-11/h3-7H,13H2,1-2H3,(H,14,15,16)","IHEAINLLXOBUEW-UHFFFAOYSA-N","Cc1cnc(N[S](=O)(=O)c2ccc(N)cc2)nc1C","-3.1435","0.0","1","G1","278.33700000000005","1.47644","73.16890000000002","19.0","5.0","2.0","7.0","3.0","100.0","2.0","0.0","0.0","2.0","97.97","111.30820628928306","2.304477129711624","696.1693645265303"
"B-2080","1,1,3-trimethylcyclopentane","InChI=1S/C8H16/c1-7-4-5-8(2,3)6-7/h7H,4-6H2,1-3H3","OBKHYUIZSOIEPG-UHFFFAOYSA-N","CC1CCC(C)(C)C1","-4.4784","0.0","1","G1","112.216","2.832600000000001","36.79599999999999","8.0","0.0","0.0","0.0","0.0","48.0","0.0","1.0","1.0","1.0","0.0","52.288014675076575","2.4354397213453027","82.03910001730776"
"B-2081","piperazine-2,5-dione, 3-methyl-","InChI=1S/C5H8N2O2/c1-3-5(9)6-2-4(8)7-3/h3H,2H2,1H3,(H,6,9)(H,7,8)","ICCHEGCKVBMSTF-UHFFFAOYSA-N","CC1NC(=O)CNC1=O","0.2903","0.0","1","G1","128.131","-1.3790999999999998","30.614399999999996","9.0","2.0","2.0","4.0","0.0","50.0","0.0","1.0","1.0","1.0","58.2","52.615956899190365","2.535054425271875","155.03698459046726"
"B-2082","n-nitrosomethylvinylamine","InChI=1S/C3H6N2O/c1-3-5(2)4-6/h3H,1H2,2H3","AWZVYNHQGTZJIH-UHFFFAOYSA-N","CN(C=C)N=O","-0.4579","0.46044999999999997","2","G3","86.094","0.7431","23.754999999999992","6.0","2.0","0.0","3.0","2.0","34.0","0.0","0.0","0.0","0.0","32.67","36.20423389910734","3.206906886091862","53.81353752812509"
"B-2083","4-pyrimidone","InChI=1S/C4H4N2O/c7-4-1-2-5-3-6-4/h1-3H,(H,5,6,7)","DNCYBUMDUBHIJZ-UHFFFAOYSA-N","O=C1NC=NC=C1","0.586","0.0","1","G1","96.08899999999998","-0.23009999999999997","24.857699999999998","7.0","2.0","1.0","3.0","0.0","36.0","1.0","0.0","0.0","1.0","45.75","40.03222118143375","3.27532977603021","175.38621243302316"
"B-2084","2,4,6-cycloheptatrien-1-one, 3-bromo-2-hydroxy-","InChI=1S/C7H5BrO2/c8-5-3-1-2-4-6(9)7(5)10/h1-4H,(H,9,10)","ZWZVMMDEDBKUEC-UHFFFAOYSA-N","OC1=C(Br)C=CC=CC1=O","-2.4352","0.0","1","G1","201.019","1.5148999999999997","42.07680000000001","10.0","2.0","1.0","3.0","0.0","52.0","1.0","0.0","0.0","1.0","37.3","66.26519413731032","3.5276549536297805","295.80075915911806"
"B-2085","ethanone, 1-(2-methyloxiranyl)-","InChI=1S/C5H8O2/c1-4(6)5(2)3-7-5/h3H2,1-2H3","MQUWXOWAAZHBSG-UHFFFAOYSA-N","CC(=O)C1(C)CO1","0.3797","0.0","1","G1","100.11699999999999","0.36429999999999996","25.03799999999999","7.0","2.0","0.0","2.0","1.0","40.0","0.0","1.0","1.0","1.0","29.6","42.4682556614374","2.5466113409770674","102.64778179757933"
"B-2086","glycine, n-[(ethylthio)thioxomethyl]-","InChI=1S/C5H9NO2S2/c1-2-10-5(9)6-3-4(7)8/h2-3H2,1H3,(H,6,9)(H,7,8)","OEVJJBPEVKMYFQ-UHFFFAOYSA-N","CCSC(=S)NCC(O)=O","-1.0882","0.0","1","G1","179.266","0.6985999999999999","46.36850000000001","10.0","3.0","2.0","5.0","3.0","58.0","0.0","0.0","0.0","0.0","49.33","69.18652779383392","3.3038725481541023","137.60964047443682"
"B-2087","lactulose","InChI=1S/C12H22O11/c13-1-4-6(16)7(17)8(18)11(21-4)22-9-5(2-14)23-12(20,3-15)10(9)19/h4-11,13-20H,1-3H2/t4-,5-,6+,7+,8-,9-,10+,11+,12-/m1/s1","JCQLYHFGKNRPGE-FCVZTGTOSA-N","OC[C@H]1O[C@@H](O[C@@H]2[C@@H](CO)O[C@](O)(CO)[C@H]2O)[C@H](O)[C@@H](O)[C@H]1O","0.3487","0.0","1","G1","342.29699999999997","-5.395599999999993","68.64140000000003","23.0","11.0","8.0","11.0","5.0","136.0","0.0","2.0","2.0","2.0","189.52999999999997","130.43645768522254","2.1281884089863876","393.2032272794937"
"B-2088","carbamic acid, diethyl-, methyl ester","InChI=1S/C6H13NO2/c1-4-7(5-2)6(8)9-3/h4-5H2,1-3H3","VAGMFMWZIMXAGK-UHFFFAOYSA-N","CCN(CC)C(=O)OC","-0.2918","0.0","1","G1","131.17499999999998","1.0946","35.32599999999999","9.0","2.0","0.0","3.0","2.0","54.0","0.0","0.0","0.0","0.0","29.540000000000003","55.59886259956661","3.6437564476124793","89.05865002596164"
"B-2089","1-naphthalenebutanoic acid, .gamma.-oxo-","InChI=1S/C14H12O3/c15-13(8-9-14(16)17)12-7-3-5-10-4-1-2-6-11(10)12/h1-7H,8-9H2,(H,16,17)","YNEXYDHOGAIPHO-UHFFFAOYSA-N","OC(=O)CCC(=O)c1cccc2ccccc12","-3.4833","0.0","1","G1","228.247","2.8873000000000015","65.14830000000003","17.0","2.0","1.0","3.0","4.0","86.0","2.0","0.0","0.0","2.0","54.37","98.69011406110215","2.34697086323985","567.193960054953"
"B-2091","d-fenchone","InChI=1S/C10H16O/c1-9(2)7-4-5-10(3,6-7)8(9)11/h7H,4-6H2,1-3H3/t7-,10+/m1/s1","LHXDLQBQYFFVNW-XCBNKYQSSA-N","CC1(C)[C@@H]2CC[C@@](C)(C2)C1=O","-1.8507","0.0","1","G1","152.237","2.401700000000001","44.23600000000002","11.0","1.0","0.0","1.0","0.0","62.0","0.0","2.0","2.0","2.0","17.07","68.17358985038433","2.416428519178835","210.15777938858872"
"B-2092","phosphonic diamide, p-phenyl-","InChI=1S/C6H9N2OP/c7-10(8,9)6-4-2-1-3-5-6/h1-5H,(H4,7,8,9)","SIZHJVYZJFWGHF-UHFFFAOYSA-N","N[P](N)(=O)c1ccccc1","-1.1482","0.0","1","G1","156.125","0.42239999999999955","42.05730000000001","10.0","1.0","2.0","4.0","1.0","54.0","1.0","0.0","0.0","1.0","69.11","59.513203165131834","3.087636787033165","253.71014322559097"
"B-2093","1,3-propanediamine, n-phenyl-","InChI=1S/C9H14N2/c10-7-4-8-11-9-5-2-1-3-6-9/h1-3,5-6,11H,4,7-8,10H2","DOSWHECVUKBMCG-UHFFFAOYSA-N","NCCCNc1ccccc1","-1.6543","0.0","1","G1","150.22499999999997","1.4472999999999998","48.603100000000026","11.0","2.0","2.0","2.0","4.0","60.0","1.0","0.0","0.0","1.0","38.05","67.41598234330755","2.2758012873675093","184.01403827281285"
"B-2094","nitralin","InChI=1S/C13H19N3O6S/c1-4-6-14(7-5-2)13-11(15(17)18)8-10(23(3,21)22)9-12(13)16(19)20/h8-9H,4-7H2,1-3H3","UMKANAFDOQQUKE-UHFFFAOYSA-N","CCCN(CCC)c1c(cc(cc1[N+]([O-])=O)[S](C)(=O)=O)[N+]([O-])=O","-5.7601","0.0","1","G1","345.3770000000001","2.5329000000000006","85.65560000000004","23.0","7.0","0.0","10.0","8.0","128.0","1.0","0.0","0.0","1.0","123.66","133.67718141726277","3.769656534349374","675.4151960929466"
"B-2095","n-phenylphthalamic acid","InChI=1S/C14H11NO3/c16-13(15-10-6-2-1-3-7-10)11-8-4-5-9-12(11)14(17)18/h1-9H,(H,15,16)(H,17,18)","DSUPUOGOCIFZBG-UHFFFAOYSA-N","OC(=O)c1ccccc1C(=O)Nc2ccccc2","-4.0814","0.0","1","G1","241.246","2.637100000000001","67.79650000000002","18.0","2.0","2.0","4.0","3.0","90.0","2.0","0.0","0.0","2.0","66.39999999999999","103.88552169024581","2.2708322641159984","578.6027923612364"
"B-2096","kryptocyanine","InChI=1S/C25H25N2.HI/c1-3-26-18-16-20(22-12-5-7-14-24(22)26)10-9-11-21-17-19-27(4-2)25-15-8-6-13-23(21)25;/h5-19H,3-4H2,1-2H3;1H/q+1;/p-1","CEJANLKHJMMNQB-UHFFFAOYSA-M","[I-].CCN1C=CC(=CC=Cc2cc[n+](CC)c3ccccc23)c4ccccc14","-2.6816","0.0","1","G1","480.39300000000026","2.6016000000000012","115.43000000000005","28.0","1.0","0.0","3.0","4.0","142.0","3.0","0.0","1.0","4.0","7.12","184.0781883055593","2.2499975512527404e-06","1063.085835349661"
"B-2098","3-chloro-2-nitrobenzoic acid","InChI=1S/C7H4ClNO4/c8-5-3-1-2-4(7(10)11)6(5)9(12)13/h1-3H,(H,10,11)/p-1","VCHSXYHBMFKRBK-UHFFFAOYSA-M","[O-]C(=O)c1cccc(Cl)c1[N+]([O-])=O","-2.6323","0.0","1","G1","200.55699999999996","0.6116999999999999","42.436899999999994","13.0","4.0","0.0","6.0","2.0","68.0","1.0","0.0","0.0","1.0","83.26999999999998","77.70834303551482","3.427344204506423","376.7553335743196"
"B-2099","serine, o-ethyl-","InChI=1S/C5H11NO3/c1-2-9-3-4(6)5(7)8/h4H,2-3,6H2,1H3,(H,7,8)/t4-/m0/s1","AFGCRUGTZPDWSF-BYPYZUCNSA-N","CCOC[C@H](N)C(O)=O","0.524","0.0","1","G1","133.147","-0.5651999999999995","32.10419999999999","9.0","3.0","2.0","4.0","4.0","54.0","0.0","0.0","0.0","0.0","72.55000000000001","53.60821126417535","3.2659073992264416","94.2038970536883"
"B-2100","propanoic acid, 2,2'-dithiobis-","InChI=1S/C6H10O4S2/c7-5(8)1-3-11-12-4-2-6(9)10/h1-4H2,(H,7,8)(H,9,10)","YCLSOMLVSHPPFV-UHFFFAOYSA-N","OC(=O)CCSSCCC(O)=O","-0.9301","0.36785","2","G3","210.27599999999998","1.3172000000000001","49.42160000000002","12.0","4.0","2.0","6.0","7.0","70.0","0.0","0.0","0.0","0.0","74.6","78.1216554413723","3.0073056362946593","141.6270750562502"
"B-2101","crotononitrile","InChI=1S/C4H5N/c1-2-3-4-5/h2-3H,1H3/b3-2+","NKKMVIVFRUYPLQ-NSCUHMNNSA-N","C/C=C/C#N","-0.4287","0.0","1","G1","67.09100000000001","1.08608","20.426999999999992","5.0","1.0","0.0","1.0","0.0","26.0","0.0","0.0","0.0","0.0","23.79","31.53705402030383","3.044400719010069","66.20736108013043"
"B-2102","1-hexen-3-ol","InChI=1S/C6H12O/c1-3-5-6(7)4-2/h4,6-7H,2-3,5H2,1H3","BVOSSZSHBZQJOI-UHFFFAOYSA-N","CCCC(O)C=C","-0.5993","0.0","1","G1","100.16099999999999","1.3334","31.111799999999985","7.0","1.0","1.0","1.0","3.0","42.0","0.0","0.0","0.0","0.0","20.23","44.66859231982434","2.9843602328703267","50.14170945007629"
"B-2103","4-methyl-1-penten-3-ol","InChI=1S/C6H12O/c1-4-6(7)5(2)3/h4-7H,1H2,2-3H3","SZKVYEHTIWILMA-UHFFFAOYSA-N","CC(C)C(O)C=C","-0.515","0.007500000000000007","2","G3","100.16099999999999","1.1893","31.041799999999984","7.0","1.0","1.0","1.0","2.0","42.0","0.0","0.0","0.0","0.0","20.23","44.668592319824334","3.3299765979747935","57.200359476037924"
"B-2104","2-hexene-4-ol","InChI=1S/C6H12O/c1-3-5-6(7)4-2/h3,5-7H,4H2,1-2H3/b5-3+","KWUXUOPPQQMMIL-HWKANZROSA-N","CCC(O)\C=C\C","-0.4198","0.009899999999999992","2","G3","100.16099999999999","1.3334","31.111799999999985","7.0","1.0","1.0","1.0","2.0","42.0","0.0","0.0","0.0","0.0","20.23","44.66859231982434","3.159487600385118","57.200359476037924"
"B-2105","benzenepropanoic acid, .alpha.-oxo-.beta.-phenyl","InChI=1S/C15H12O3/c16-14(15(17)18)13(11-7-3-1-4-8-11)12-9-5-2-6-10-12/h1-10,13H,(H,17,18)","VDIDZYZFFJPJCJ-UHFFFAOYSA-N","OC(=O)C(=O)C(c1ccccc1)c2ccccc2","-2.3354","0.0","1","G1","240.258","2.472200000000001","67.36980000000003","18.0","2.0","1.0","3.0","4.0","90.0","2.0","0.0","0.0","2.0","54.37","104.70060162103438","2.484673344040051","506.96610164809874"
"B-2106","kasugamycin","InChI=1S/C14H21N3O3/c1-14(2,3)16-13(19)20-11-8-6-7-10(9-11)15-12(18)17(4)5/h6-9H,1-5H3,(H,15,18)(H,16,19)","OWNAXTAAAQTBSP-UHFFFAOYSA-N","CN(C)C(=O)Nc1cccc(OC(=O)NC(C)(C)C)c1","-2.9342","0.0","1","G1","279.34","2.6670000000000007","78.06040000000004","20.0","3.0","2.0","6.0","2.0","110.0","1.0","0.0","0.0","1.0","70.67","118.6470875016837","2.687869436009675","492.68265003285603"
"B-2107","phosphinic acid, di-4-morpholinyl-, phenyl ester","InChI=1S/C14H21N2O4P/c17-21(15-6-10-18-11-7-15,16-8-12-19-13-9-16)20-14-4-2-1-3-5-14/h1-5H,6-13H2","ARRSANOSOGNTIJ-UHFFFAOYSA-N","O=[P](Oc1ccccc1)(N2CCOCC2)N3CCOCC3","0.3925","0.0","1","G1","312.30600000000004","1.8378999999999994","79.46050000000005","21.0","4.0","0.0","7.0","4.0","116.0","1.0","2.0","2.0","3.0","51.239999999999995","124.68826966627545","1.8335359910017606","465.00719152428013"
"B-2108","propanoic acid, 3-hydroxy-, butyl ester","InChI=1S/C7H14O3/c1-2-3-6-10-7(9)4-5-8/h8H,2-6H2,1H3","MENWVOUYOZQBDM-UHFFFAOYSA-N","CCCCOC(=O)CCO","-1.2899","0.0","1","G1","146.18599999999998","0.7121","37.569799999999994","10.0","3.0","1.0","3.0","5.0","60.0","0.0","0.0","0.0","0.0","46.53","60.99820479595585","3.0523751890457076","90.85200900961469"
"B-2110","butanedioic acid, 2,2'-thiobis-","InChI=1S/C8H10O8S/c9-5(10)1-3(7(13)14)17-4(8(15)16)2-6(11)12/h3-4H,1-2H2,(H,9,10)(H,11,12)(H,13,14)(H,15,16)","SASYRHXVHLPMQD-UHFFFAOYSA-N","OC(=O)CC(SC(CC(O)=O)C(O)=O)C(O)=O","-0.4908","0.0","1","G1","266.227","-0.4245999999999999","54.9442","17.0","5.0","4.0","9.0","8.0","96.0","0.0","0.0","0.0","0.0","149.2","99.23997926293019","4.669056914112521","306.41688017891374"
"B-2111","3-methyl-2-nitrophenol","InChI=1S/C7H7NO3/c1-5-3-2-4-6(9)7(5)8(10)11/h2-4,9H,1H3","QIORDSKCCHRSSD-UHFFFAOYSA-N","Cc1cccc(O)c1[N+]([O-])=O","-1.64","0.0","1","G1","153.137","1.6088200000000001","39.49820000000002","11.0","3.0","1.0","4.0","1.0","58.0","1.0","0.0","0.0","1.0","63.37","63.243554708589386","3.318913173486668","275.4872022742226"
"B-2112","acetamide, 2-chloro-n-(chloroacetyl)-","InChI=1S/C4H5Cl2NO2/c5-1-3(8)7-4(9)2-6/h1-2H2,(H,7,8,9)","UWZCYHHAEYIVRW-UHFFFAOYSA-N","ClCC(=O)NC(=O)CCl","-2.2304","0.0","1","G1","169.99499999999998","0.10679999999999984","34.5897","9.0","2.0","1.0","5.0","2.0","52.0","0.0","0.0","0.0","0.0","46.17","62.31351620847829","3.4713176263221484","111.73604288123639"
"B-2113","2-benzothiazolesulfenamide, n,n-dicyclohexyl-","InChI=1S/C19H26N2S2/c1-3-9-15(10-4-1)21(16-11-5-2-6-12-16)23-19-20-17-13-7-8-14-18(17)22-19/h7-8,13-16H,1-6,9-12H2","CMAUJSNXENPPOF-UHFFFAOYSA-N","C1CCC(CC1)N(Sc2sc3ccccc3n2)C4CCCCC4","-6.7886","1.5199288587844582","4","G4","346.5650000000002","6.270800000000006","101.06200000000008","23.0","4.0","0.0","4.0","4.0","124.0","2.0","2.0","2.0","4.0","16.130000000000003","147.35904317448816","1.5529571220617053","576.0862503322794"
"B-2114","benzoic acid, 4,5-dimethoxy-2-nitro-","InChI=1S/C9H9NO6/c1-15-7-3-5(9(11)12)6(10(13)14)4-8(7)16-2/h3-4H,1-2H3,(H,11,12)/p-1","WWCMFGBGMJAJRX-UHFFFAOYSA-M","COc1cc(C([O-])=O)c(cc1OC)[N+]([O-])=O","-0.7543","0.0","1","G1","226.164","-0.02450000000000019","50.53090000000001","16.0","6.0","0.0","7.0","4.0","86.0","1.0","0.0","0.0","1.0","101.72999999999999","90.36205149644012","3.472364748554156","400.8705052495279"
"B-2115","benzoic acid, 2-(acetyloxy)-, 4-(acetylamino)phe","InChI=1S/C17H15NO5/c1-11(19)18-13-7-9-14(10-8-13)23-17(21)15-5-3-4-6-16(15)22-12(2)20/h3-10H,1-2H3,(H,18,19)","FEJKLNWAOXSSNR-UHFFFAOYSA-N","CC(=O)Nc1ccc(OC(=O)c2ccccc2OC(C)=O)cc1","-4.1949","0.0","1","G1","313.309","2.789500000000001","83.45520000000003","23.0","5.0","1.0","6.0","4.0","118.0","2.0","0.0","0.0","2.0","81.69999999999999","132.57472684029716","2.127760005841159","736.9038758623769"
"B-2116","piperidine, 1-(phenylsulfonyl)-","InChI=1S/C11H15NO2S/c13-15(14,11-7-3-1-4-8-11)12-9-5-2-6-10-12/h1,3-4,7-8H,2,5-6,9-10H2","VRYWBMTXKFQBCA-UHFFFAOYSA-N","O=[S](=O)(N1CCCCC1)c2ccccc2","-2.5365","0.0","1","G1","225.31300000000002","1.8612000000000002","59.05180000000004","15.0","2.0","0.0","4.0","2.0","82.0","1.0","1.0","1.0","2.0","37.38","90.77089210056926","2.263931581175127","407.47387890244363"
"B-2117","benzeneacetonitrile, .alpha.-(diethylamino)-","InChI=1S/C12H16N2/c1-3-14(4-2)12(10-13)11-8-6-5-7-9-11/h5-9,12H,3-4H2,1-2H3","MNUHBMWEFILMEW-UHFFFAOYSA-N","CCN(CC)C(C#N)c1ccccc1","-0.9738","0.0","1","G1","188.27400000000003","2.5930800000000005","57.71700000000004","14.0","2.0","0.0","2.0","4.0","74.0","1.0","0.0","0.0","1.0","27.03","85.77346915754872","2.8791512162471458","295.84780984827137"
"B-2121","quinoline, 2-(nitromethyl)-","InChI=1S/C10H8N2O2/c13-12(14)7-9-6-5-8-3-1-2-4-10(8)11-9/h1-6H,7H2","SIQRLWJNWZCECZ-UHFFFAOYSA-N","[O-][N+](=O)Cc1ccc2ccccc2n1","-2.0545","0.0","1","G1","188.186","2.0115","52.441400000000016","14.0","3.0","0.0","4.0","2.0","70.0","2.0","0.0","0.0","2.0","56.03","80.35063346907509","2.4574956097268665","482.2606222531353"
"B-2122","ditalimfos (laptran)","InChI=1S/C12H14NO4PS/c1-3-16-18(19,17-4-2)13-11(14)9-7-5-6-8-10(9)12(13)15/h5-8H,3-4H2,1-2H3","MTBZIGHNGSTDJV-UHFFFAOYSA-N","CCO[P](=S)(OCC)N1C(=O)c2ccccc2C1=O","-3.3522","0.0","1","G1","299.28800000000007","2.5801000000000007","74.47900000000003","19.0","5.0","0.0","7.0","5.0","102.0","1.0","0.0","1.0","2.0","55.84","116.27466020249584","2.4501912093629694","529.6027401906489"
"B-2123","hexanedioic acid, 2,5-dimercapto-","InChI=1S/C6H10O4S2/c7-5(8)3(11)1-2-4(12)6(9)10/h3-4,11-12H,1-2H2,(H,7,8)(H,9,10)","SUVZGLSQFGNBQI-UHFFFAOYSA-N","OC(=O)C(S)CCC(S)C(O)=O","-2.4758","0.0","1","G1","210.27600000000004","0.5326","50.05360000000002","12.0","4.0","4.0","6.0","5.0","70.0","0.0","0.0","0.0","0.0","74.6","80.78560663109562","3.6806583316694943","162.38689879982144"
"B-2124","l-aspartic acid, n-[(ethylthio)thioxomethyl]-","InChI=1S/C7H11NO4S2/c1-2-14-7(13)8-4(6(11)12)3-5(9)10/h4H,2-3H2,1H3,(H,8,13)(H,9,10)(H,11,12)/t4-/m0/s1","KKUMBCQWVRPGMH-BYPYZUCNSA-N","CCSC(=S)N[C@@H](CC(O)=O)C(O)=O","-1.3863","0.0","1","G1","237.302","0.5419","57.54230000000001","14.0","4.0","3.0","7.0","5.0","80.0","0.0","0.0","0.0","0.0","86.63","90.87216787486695","4.156857495504796","243.8442939431395"
"B-2125","ethane, 1,1'-oxybis[2-[(2-chloroethyl)sulfonyl]-","InChI=1S/C8H16Cl2O5S2/c9-1-5-16(11,12)7-3-15-4-8-17(13,14)6-2-10/h1-8H2","IMQZHNMZKUCNAB-UHFFFAOYSA-N","ClCC[S](=O)(=O)CCOCC[S](=O)(=O)CCCl","-1.9408","0.0","1","G1","327.2510000000001","0.31020000000000025","69.56660000000004","17.0","5.0","0.0","9.0","10.0","104.0","0.0","0.0","0.0","0.0","77.51","112.26472027544918","3.7352783400975813","352.1386008980744"
"B-2126","1,4-benzenedicarboxylic acid, 2-methoxy-","InChI=1S/C9H8O5/c1-14-7-4-5(8(10)11)2-3-6(7)9(12)13/h2-4H,1H3,(H,10,11)(H,12,13)","VQBBXLZPRXHYBO-UHFFFAOYSA-N","COc1cc(ccc1C(O)=O)C(O)=O","-1.9916","0.0","1","G1","196.158","1.0916","46.912600000000005","14.0","3.0","2.0","5.0","3.0","74.0","1.0","0.0","0.0","1.0","83.83000000000001","79.55128639667323","3.2457899763887452","382.78874558784804"
"B-2128","acetamide, n-(4-chloro-2-methylphenyl)-","InChI=1S/C9H10ClNO/c1-6-5-8(10)3-4-9(6)11-7(2)12/h3-5H,1-2H3,(H,11,12)","WMHHXYOPEQARIN-UHFFFAOYSA-N","CC(=O)Nc1ccc(Cl)cc1C","-2.3097","0.0","1","G1","183.63799999999998","2.606820000000001","50.49270000000002","12.0","1.0","1.0","3.0","1.0","64.0","1.0","0.0","0.0","1.0","29.1","76.54087997322026","2.9348021246299894","309.39688695312145"
"B-2129","dimethirimol","InChI=1S/C11H19N3O/c1-5-6-7-9-8(2)12-11(14(3)4)13-10(9)15/h5-7H2,1-4H3,(H,12,13,15)","CJHXCRMKMMBYJQ-UHFFFAOYSA-N","CCCCC1=C(C)NC(=NC1=O)N(C)C","-2.2416","0.0","1","G1","209.29299999999998","1.48692","62.53370000000003","15.0","3.0","1.0","4.0","4.0","84.0","1.0","0.0","0.0","1.0","48.99","90.34664965241338","3.0460833949315185","381.9096907890864"
"B-2130","benzeneacetic acid, -[(sulfooxy)methyl]-, 8-meth","InChI=1S/C17H23NO6S/c1-18-13-7-8-14(18)10-15(9-13)24-17(19)16(11-23-25(20,21)22)12-5-3-2-4-6-12/h2-6,13-16H,7-11H2,1H3,(H,20,21,22)","GMLBHJMTVBLXLJ-UHFFFAOYSA-N","CN1C2CCC1CC(C2)OC(=O)C(CO[S](O)(=O)=O)c3ccccc3","-1.5675","0.0","1","G1","369.4390000000001","1.7579999999999998","90.37060000000007","25.0","6.0","1.0","8.0","6.0","138.0","1.0","2.0","2.0","3.0","93.13999999999999","147.4201901861607","1.6856181090944464","693.1080738912358"
"B-2133","cyclohexylacetic acid","InChI=1S/C8H14O2/c9-8(10)6-7-4-2-1-3-5-7/h7H,1-6H2,(H,9,10)","LJOODBDWMQKMFB-UHFFFAOYSA-N","OC(=O)CC1CCCCC1","-1.6935","0.0","1","G1","142.19799999999998","2.0414000000000003","38.8278","10.0","1.0","1.0","2.0","2.0","58.0","0.0","1.0","1.0","1.0","37.3","61.24377052731636","2.1919163912003334","114.42599881712918"
"B-2134","propanamide, n-hexadecyl-2-hydroxy-","InChI=1S/C19H39NO2/c1-3-4-5-6-7-8-9-10-11-12-13-14-15-16-17-20-19(22)18(2)21/h18,21H,3-17H2,1-2H3,(H,20,22)","SNUWGZLOWPBEIJ-UHFFFAOYSA-N","CCCCCCCCCCCCCCCCNC(=O)C(C)O","-3.6512","0.0","1","G1","313.52599999999995","4.964700000000005","95.00250000000007","22.0","2.0","2.0","3.0","16.0","132.0","0.0","0.0","0.0","0.0","49.33","137.81382712281635","3.0405748352461126","241.5896823433286"
"B-2135","propanamide, 2-hydroxy-n-pentyl-","InChI=1S/C8H17NO2/c1-3-4-5-6-9-8(11)7(2)10/h7,10H,3-6H2,1-2H3,(H,9,11)","CBHYPXXMQKAMNM-UHFFFAOYSA-N","CCCCCNC(=O)C(C)O","-0.3825","0.0","1","G1","159.22899999999998","0.6735999999999998","44.21550000000001","11.0","2.0","2.0","3.0","5.0","66.0","0.0","0.0","0.0","0.0","49.33","67.79946386445361","3.178167514720856","112.65968562262317"