"ID","Name","InChI","InChIKey","SMILES","Solubility","SD","Ocurrences","Group","MolWt","MolLogP","MolMR","HeavyAtomCount","NumHAcceptors","NumHDonors","NumHeteroatoms","NumRotatableBonds","NumValenceElectrons","NumAromaticRings","NumSaturatedRings","NumAliphaticRings","RingCount","TPSA","LabuteASA","BalabanJ","BertzCT"
"B-1862","2(3h)-benzoxazolethione","InChI=1S/C7H5NOS/c10-7-8-5-3-1-2-4-6(5)9-7/h1-4H,(H,8,10)","FLFWJIBUZQARMD-UHFFFAOYSA-N","S=C1Nc2ccccc2O1","-2.1795","0.0","1","G1","151.18999999999997","2.4903900000000005","41.398700000000005","10.0","2.0","1.0","3.0","0.0","50.0","2.0","0.0","0.0","2.0","28.93","62.485825143460396","3.007619546803024","364.89835341124046"
"B-1863","mirex","InChI=1S/C10Cl12/c11-1-2(12)7(17)4(14)3(13,5(1,15)9(7,19)20)6(1,16)10(21,22)8(2,4)18","GVYLCNUFSHDAAW-UHFFFAOYSA-N","ClC1(Cl)C2(Cl)C3(Cl)C4(Cl)C(Cl)(Cl)C5(Cl)C3(Cl)C1(Cl)C5(Cl)C24Cl","-6.8074","0.0","1","G1","545.5460000000003","6.222999999999999","97.54599999999998","22.0","0.0","0.0","12.0","0.0","124.0","0.0","6.0","6.0","6.0","0.0","184.63376901233295","2.077829675923021","574.6955361255153"
"B-1864","1-chloro-3-isothiocyanato-benzene","InChI=1S/C7H4ClNS/c8-6-2-1-3-7(4-6)9-5-10/h1-4H","WGXCKFMVBAOIFH-UHFFFAOYSA-N","Clc1cccc(c1)N=C=S","-3.9507","0.0","1","G1","169.636","3.074300000000001","46.13800000000001","10.0","2.0","0.0","3.0","1.0","50.0","1.0","0.0","0.0","1.0","12.36","69.35371419384025","3.061972168711611","278.6895252608723"
"B-1865","1,8-nonadiyne","InChI=1S/C9H12/c1-3-5-7-9-8-6-4-2/h1-2H,5-9H2","DMOVPHYFYSASTC-UHFFFAOYSA-N","C#CCCCCCC#C","-2.983","0.0","1","G1","120.195","2.2033000000000005","40.75100000000001","9.0","0.0","0.0","0.0","4.0","48.0","0.0","0.0","0.0","0.0","0.0","57.657238726720955","2.787167523586374","103.95418659385767"
"B-1866","n-oxidenicotinic acid","InChI=1S/C6H5NO3/c8-6(9)5-2-1-3-7(10)4-5/h1-4H,(H,8,9)","FJCFFCXMEXZEIM-UHFFFAOYSA-N","OC(=O)C1=C[NH++]([O-])[CH-]C=C1","-1.2983","0.0","1","G1","140.118","-0.9308099999999997","33.488499999999995","10.0","2.0","1.0","4.0","1.0","53.0","0.0","0.0","1.0","1.0","67.76","57.64278615603198","2.7589599781358083","207.03846842100583"
"B-1867","phosphonic acid, ethyl-, dibutyl ester","InChI=1S/C10H23O3P/c1-4-7-9-12-14(11,6-3)13-10-8-5-2/h4-10H2,1-3H3","SBRBXWIDHBSVPD-UHFFFAOYSA-N","CCCCO[P](=O)(CC)OCCCC","-1.5687","0.0","1","G1","222.26499999999993","3.8328000000000033","59.86750000000005","14.0","3.0","0.0","4.0","9.0","86.0","0.0","0.0","0.0","0.0","35.53","87.71376093276064","3.737825503323074","156.7500459686256"
"B-1868","dibutyl methylphosphonate","InChI=1S/C9H21O3P/c1-4-6-8-11-13(3,10)12-9-7-5-2/h4-9H2,1-3H3","NPNBLTJGRBYCJB-UHFFFAOYSA-N","CCCCO[P](C)(=O)OCCCC","-1.4155","0.0","1","G1","208.23799999999994","3.442700000000002","55.250500000000045","13.0","3.0","0.0","4.0","8.0","80.0","0.0","0.0","0.0","0.0","35.53","81.34881881836402","3.4851076896510653","144.93880387261316"
"B-1869","phenol, 2-phenoxy-","InChI=1S/C12H10O2/c13-11-8-4-5-9-12(11)14-10-6-2-1-3-7-10/h1-9,13H","KDTZBYPBMTXCSO-UHFFFAOYSA-N","Oc1ccccc1Oc2ccccc2","-3.2286","0.0","1","G1","186.21","3.1845000000000017","54.622800000000026","14.0","2.0","1.0","2.0","2.0","70.0","2.0","0.0","0.0","2.0","29.46","82.39627630726389","2.2369588843757167","409.6767229032693"
"B-1870","tri-sec-butanolamine","InChI=1S/C12H27NO3/c1-4-10(14)7-13(8-11(15)5-2)9-12(16)6-3/h10-12,14-16H,4-9H2,1-3H3","BFIAIMMAHAIVFT-UHFFFAOYSA-N","CCC(O)CN(CC(O)CC)CC(O)CC","-0.5229","0.0","1","G1","233.35199999999998","0.6010999999999993","65.33340000000005","16.0","4.0","3.0","4.0","9.0","98.0","0.0","0.0","0.0","0.0","63.93000000000001","98.89614921298363","4.145433411615663","137.8135375281251"
"B-1871","12-methylbenz(a)anthracene","InChI=1S/C19H14/c1-13-17-8-4-3-7-15(17)12-16-11-10-14-6-2-5-9-18(14)19(13)16/h2-12H,1H3","ACYOLKMEHHTLAB-UHFFFAOYSA-N","Cc1c2ccccc2cc3ccc4ccccc4c13","-6.5648","0.0","1","G1","242.321","5.454620000000004","83.69700000000005","19.0","0.0","0.0","0.0","0.0","90.0","4.0","0.0","0.0","4.0","0.0","111.8413388290992","2.334130511633286","916.7400111490208"
"B-1872","captafol","InChI=1S/C10H9Cl4NO2S/c11-9(12)10(13,14)18-15-7(16)5-3-1-2-4-6(5)8(15)17/h1-2,5-6,9H,3-4H2","JHRWWRDRBPCWTF-UHFFFAOYSA-N","ClC(Cl)C(Cl)(Cl)SN1C(=O)C2CC=CCC2C1=O","-5.3968","0.0","1","G1","349.06600000000014","3.520900000000001","74.72900000000001","18.0","3.0","0.0","8.0","3.0","100.0","0.0","1.0","2.0","2.0","37.38","128.87689503196762","2.1604455885783054","386.68186009880054"
"B-1873","glycidyl n-butyl ether","InChI=1S/C7H14O2/c1-2-3-4-8-5-7-6-9-7/h7H,2-6H2,1H3","YSUQLAYJZDEMOT-UHFFFAOYSA-N","CCCCOCC1CO1","-0.8135","0.0","1","G1","130.18699999999998","1.2019","35.467","9.0","2.0","0.0","2.0","5.0","54.0","0.0","1.0","1.0","1.0","21.759999999999998","56.15016301969372","1.7060432961664127","69.31640245632484"
"B-1874","4-methyl-2,6-dichlorophenol","InChI=1S/C7H6Cl2O/c1-4-2-5(8)7(10)6(9)3-4/h2-3,10H,1H3","YXEOEPYIBGTLML-UHFFFAOYSA-N","Cc1cc(Cl)c(O)c(Cl)c1","-1.4202","0.0","1","G1","177.03","3.0074200000000006","42.86380000000002","10.0","1.0","1.0","3.0","0.0","54.0","1.0","0.0","0.0","1.0","20.23","69.19711143985293","3.310532874722407","234.77817392215357"
"B-1875","pteridine, 2-methyl-","InChI=1S/C7H6N4/c1-5-10-4-6-7(11-5)9-3-2-8-6/h2-4H,1H3","BIGRRCHSUAXSEE-UHFFFAOYSA-N","Cc1ncc2nccnc2n1","-0.1191","0.1726839180571125","3","G5","146.153","0.7282199999999999","39.865000000000016","11.0","4.0","0.0","4.0","0.0","54.0","2.0","0.0","0.0","2.0","51.56","63.35660168941482","2.8289012156206956","384.85228689314886"
"B-1876","pteridine, 4-methyl-","InChI=1S/C7H6N4/c1-5-6-7(11-4-10-5)9-3-2-8-6/h2-4H,1H3","WESDBLALURHRDL-UHFFFAOYSA-N","Cc1ncnc2nccnc12","-0.4658","0.16900469421488465","3","G5","146.15299999999996","0.7282199999999999","39.86500000000001","11.0","4.0","0.0","4.0","0.0","54.0","2.0","0.0","0.0","2.0","51.56","63.356601689414816","2.9131611636048604","379.6022868931489"
"B-1878","oxythioquinox","InChI=1S/C10H6N2OS2/c1-5-2-3-6-7(4-5)12-9-8(11-6)14-10(13)15-9/h2-4H,1H3","FBQQHUGEACOBDN-UHFFFAOYSA-N","Cc1ccc2nc3SC(=O)Sc3nc2c1","-5.3698","0.0","1","G1","234.305","2.5746200000000004","63.805000000000014","15.0","5.0","0.0","5.0","0.0","74.0","3.0","0.0","0.0","3.0","42.85","93.05170646005597","2.5145236538247846","714.0826797621032"
"B-1879","dodine","InChI=1S/C13H29N3.C2H4O2/c1-2-3-4-5-6-7-8-9-10-11-12-16-13(14)15;1-2(3)4/h2-12H2,1H3,(H4,14,15,16);1H3,(H,3,4)","YIKWKLYQRFRGPM-UHFFFAOYSA-N","CCCCCCCCCCCCN=C(N)N.CC(O)=O","-2.6592","0.0","1","G1","287.448","3.2716000000000003","85.83060000000005","20.0","2.0","3.0","5.0","11.0","120.0","0.0","0.0","0.0","0.0","101.69999999999999","123.38513151503665","0.0","235.2731249501922"
"B-1880","o-methoxybenzamide","InChI=1S/C8H9NO2/c1-11-7-5-3-2-4-6(7)8(9)10/h2-5H,1H3,(H2,9,10)","MNWSGMTUGXNYHJ-UHFFFAOYSA-N","COc1ccccc1C(N)=O","-1.7815","0.0","1","G1","151.16499999999996","0.7941","41.51190000000001","11.0","2.0","1.0","3.0","2.0","58.0","1.0","0.0","0.0","1.0","52.32","64.77624537485353","3.121219318886157","270.54949758389114"
"B-1881","glyphosine","InChI=1S/C4H11NO8P2/c6-4(7)1-5(2-14(8,9)10)3-15(11,12)13/h1-3H2,(H,6,7)(H2,8,9,10)(H2,11,12,13)","OXHDYFKENBXUEM-UHFFFAOYSA-N","OC(=O)CN(C[P](O)(O)=O)C[P](O)(O)=O","-0.0256","0.0728","2","G3","263.079","-1.3566000000000003","48.16400000000002","15.0","4.0","5.0","11.0","6.0","90.0","0.0","0.0","0.0","0.0","155.6","84.65248273494227","4.525410345249786","292.60335893412775"
"B-1882","ethanone, 2-(4-aminophenyl)-1-phenyl-","InChI=1S/C14H13NO/c15-13-8-6-11(7-9-13)10-14(16)12-4-2-1-3-5-12/h1-9H,10,15H2","XBDWIJCZQWUMMU-UHFFFAOYSA-N","Nc1ccc(CC(=O)c2ccccc2)cc1","-1.805","0.0","1","G1","211.26400000000004","2.6942000000000013","65.33090000000003","16.0","2.0","1.0","2.0","3.0","80.0","2.0","0.0","0.0","2.0","43.09","94.71979435141071","2.1105163490120473","473.84834508395556"
"B-1883","4,4'-dichlorodiphenyl ether","InChI=1S/C12H8Cl2O/c13-9-1-5-11(6-2-9)15-12-7-3-10(14)4-8-12/h1-8H","URUJZHZLCCIILC-UHFFFAOYSA-N","Clc1ccc(Oc2ccc(Cl)cc2)cc1","-4.7999","0.0","1","G1","239.101","4.785700000000003","62.97800000000003","15.0","1.0","0.0","3.0","2.0","76.0","2.0","0.0","0.0","2.0","9.23","98.20857500883122","2.1467113756182017","390.6842279806418"
"B-1884","terpin hydrate (cis-form)","InChI=1S/C10H20O2.H2O/c1-9(2,11)8-4-6-10(3,12)7-5-8;/h8,11-12H,4-7H2,1-3H3;1H2","JGKJMBOJWVAMIJ-UHFFFAOYSA-N","O.CC(C)(O)C1CCC(C)(O)CC1","-1.6774","0.0","1","G1","190.28299999999996","0.8737999999999999","52.49340000000004","13.0","2.0","2.0","3.0","1.0","80.0","0.0","1.0","1.0","1.0","71.96000000000001","80.0871198366762","1.4399995716001303e-06","148.04301839132643"
"B-1886","1,4,5,8-tetraaminoanthraquinone","InChI=1S/C14H12N4O2/c15-5-1-2-6(16)10-9(5)13(19)11-7(17)3-4-8(18)12(11)14(10)20/h1-4H,15-18H2","JSFUMBWFPQSADC-UHFFFAOYSA-N","Nc1ccc(N)c2C(=O)c3c(N)ccc(N)c3C(=O)c12","-6.9515","0.0","1","G1","268.276","0.7908000000000002","77.39859999999999","20.0","6.0","4.0","6.0","0.0","100.0","2.0","0.0","1.0","3.0","138.22","113.89515738896338","2.4618026573276635","666.7462922813075"
"B-1887","medinoterb acetate","InChI=1S/C13H16N2O6/c1-7-9(14(17)18)6-10(15(19)20)12(21-8(2)16)11(7)13(3,4)5/h6H,1-5H3","GZJNBGYLANALSV-UHFFFAOYSA-N","CC(=O)Oc1c(cc(c(C)c1C(C)(C)C)[N+]([O-])=O)[N+]([O-])=O","-4.4717","0.0","1","G1","296.279","3.034220000000002","74.49680000000002","21.0","6.0","0.0","8.0","3.0","114.0","1.0","0.0","0.0","1.0","112.58000000000001","120.56701669482345","3.8871869670123678","630.5291477180689"
"B-1888","glycine, n-formyl-","InChI=1S/C3H5NO3/c5-2-4-1-3(6)7/h2H,1H2,(H,4,5)(H,6,7)","UGJBHEZMOKVTIM-UHFFFAOYSA-N","OC(=O)CNC=O","0.2672","0.0","1","G1","103.07699999999998","-1.183","21.702499999999997","7.0","2.0","2.0","4.0","3.0","40.0","0.0","0.0","0.0","0.0","66.4","40.13627539251435","2.9670528832697767","80.24920506009684"
"B-1889","ethanone, 1-(4-hydroxyphenyl)-2-phenyl-","InChI=1S/C14H12O2/c15-13-8-6-12(7-9-13)14(16)10-11-4-2-1-3-5-11/h1-9,15H,10H2","JBQTZLNCDIFCCO-UHFFFAOYSA-N","Oc1ccc(cc1)C(=O)Cc2ccccc2","-1.5008","0.0","1","G1","212.248","2.8176000000000005","62.58330000000004","16.0","2.0","1.0","2.0","3.0","80.0","2.0","0.0","0.0","2.0","37.3","94.17413740659401","2.119180990864876","471.84834508395556"
"B-1890","disulfoton sulfone","InChI=1S/C8H19O4PS3/c1-4-11-13(14,12-5-2)15-7-8-16(9,10)6-3/h4-8H2,1-3H3","BKVJOVPVLOJPKJ-UHFFFAOYSA-N","CCO[P](=S)(OCC)SCC[S](=O)(=O)CC","-2.5403","0.0","1","G1","306.41100000000006","2.4518000000000004","74.32280000000004","16.0","6.0","0.0","8.0","9.0","98.0","0.0","0.0","0.0","0.0","52.6","107.3112871629756","4.1841457559818025","318.1751243754944"
"B-1891","benz[a]anthracene, 5-fluoro-7-methyl-","InChI=1S/C19H13F/c1-12-14-7-3-2-6-13(14)10-18-15-8-4-5-9-16(15)19(20)11-17(12)18/h2-11H,1H3","IGJZSNRZNHDOFW-UHFFFAOYSA-N","Cc1c2ccccc2cc3c1cc(F)c4ccccc34","-7.31","0.0","1","G1","260.311","5.593720000000003","83.65500000000003","20.0","0.0","0.0","1.0","0.0","96.0","4.0","0.0","0.0","4.0","0.0","116.00687423202544","2.340399397279029","961.2867569201643"
"B-1892","1-methylbenz(a)anthracene","InChI=1S/C19H14/c1-13-5-4-8-14-9-10-17-11-15-6-2-3-7-16(15)12-18(17)19(13)14/h2-12H,1H3","MWMBCXXTFFHALK-UHFFFAOYSA-N","Cc1cccc2ccc3cc4ccccc4cc3c12","-6.644","0.0","1","G1","242.321","5.454620000000004","83.69700000000005","19.0","0.0","0.0","0.0","0.0","90.0","4.0","0.0","0.0","4.0","0.0","111.84133882909919","2.288164726178113","916.7400111490208"
"B-1893","2-nitro-5-chlorobenzoic acid","InChI=1S/C7H4ClNO4/c8-4-1-2-6(9(12)13)5(3-4)7(10)11/h1-3H,(H,10,11)","ZKUYSJHXBFFGPU-UHFFFAOYSA-N","OC(=O)c1cc(Cl)ccc1[N+]([O-])=O","-1.319","0.0","1","G1","201.565","1.9464000000000004","45.0657","13.0","3.0","1.0","6.0","2.0","68.0","1.0","0.0","0.0","1.0","80.44","77.70834303551482","3.3486590713152182","376.7553335743196"
"B-1894","dibutyl phenyl phosphate","InChI=1S/C14H23O4P/c1-3-5-12-16-19(15,17-13-6-4-2)18-14-10-8-7-9-11-14/h7-11H,3-6,12-13H2,1-2H3","YICSVBJRVMLQNS-UHFFFAOYSA-N","CCCCO[P](=O)(OCCCC)Oc1ccccc1","-3.4746","0.0","1","G1","286.30799999999994","4.806900000000004","76.39650000000006","19.0","4.0","0.0","5.0","10.0","108.0","1.0","0.0","0.0","1.0","44.760000000000005","115.24118639766557","2.5914128917982353","366.29217101740784"
"B-1895","chlorflurecol methyl","InChI=1S/C15H11ClO3/c1-19-14(17)15(18)12-5-3-2-4-10(12)11-7-6-9(16)8-13(11)15/h2-8,18H,1H3","LINPVWIEWJTEEJ-UHFFFAOYSA-N","COC(=O)C1(O)c2ccccc2c3ccc(Cl)cc13","-4.1836","0.0","1","G1","274.70300000000003","2.729300000000001","71.90280000000003","19.0","3.0","1.0","4.0","1.0","96.0","2.0","0.0","1.0","3.0","46.53","114.95005982384991","2.3770639184619307","680.8409463497775"
"B-1897","formothion","InChI=1S/C6H12NO4PS2/c1-7(5-8)6(9)4-14-12(13,10-2)11-3/h5H,4H2,1-3H3","AIKKULXCBHRFOS-UHFFFAOYSA-N","CO[P](=S)(OC)SCC(=O)N(C)C=O","-1.9954","0.0","1","G1","257.27299999999997","0.8516999999999999","59.59500000000002","14.0","6.0","0.0","8.0","6.0","82.0","0.0","0.0","0.0","0.0","55.84","92.03888242268675","4.109305020933433","252.21605924781633"
"B-1898","benz[a]anthracene, 6-fluoro-7-methyl-","InChI=1S/C19H13F/c1-12-15-8-4-2-6-13(15)10-17-16-9-5-3-7-14(16)11-18(20)19(12)17/h2-11H,1H3","YTMJGWZZUJCJPE-UHFFFAOYSA-N","Cc1c2ccccc2cc3c4ccccc4cc(F)c13","-7.31","0.0","1","G1","260.311","5.593720000000003","83.65500000000004","20.0","0.0","0.0","1.0","0.0","96.0","4.0","0.0","0.0","4.0","0.0","116.00687423202544","2.3584554469956758","967.2867569201643"
"B-1899","benz(a)anthracene-7-methyl","InChI=1S/C19H14/c1-13-16-8-4-3-7-15(16)12-19-17(13)11-10-14-6-2-5-9-18(14)19/h2-12H,1H3","DIIFUCUPDHMNIV-UHFFFAOYSA-N","Cc1c2ccccc2cc3c4ccccc4ccc13","-7.343","0.35150000000000015","2","G3","242.321","5.454620000000004","83.69700000000005","19.0","0.0","0.0","0.0","0.0","90.0","4.0","0.0","0.0","4.0","0.0","111.84133882909921","2.3181930833020647","916.7400111490208"
"B-1900","nonanoic acid, 9-oxo-","InChI=1S/C9H16O3/c10-8-6-4-2-1-3-5-7-9(11)12/h8H,1-7H2,(H,11,12)","WLGDDELKYAWBBL-UHFFFAOYSA-N","OC(=O)CCCCCCCC=O","-0.9574","0.0","1","G1","172.224","2.0006","46.01880000000003","12.0","2.0","1.0","3.0","8.0","70.0","0.0","0.0","0.0","0.0","54.37","72.77606589528597","2.904411038051829","131.7353374935096"
"B-1901","acetamide, 2,2-dichloro-n-phenyl-","InChI=1S/C8H7Cl2NO/c9-7(10)8(12)11-6-4-2-1-3-5-6/h1-5,7H,(H,11,12)","KJSVAEGLTPBKAA-UHFFFAOYSA-N","ClC(Cl)C(=O)Nc1ccccc1","-3.3555","0.0","1","G1","204.05600000000004","2.4288","50.565700000000014","12.0","1.0","1.0","4.0","2.0","64.0","1.0","0.0","0.0","1.0","29.1","80.47920408570535","2.5897829796017806","261.0201872896982"
"B-1902","1,3-dioxolane, 2-ethyl-","InChI=1S/C5H10O2/c1-2-5-6-3-4-7-5/h5H,2-4H2,1H3","WEBRDDDJKLAXTO-UHFFFAOYSA-N","CCC1OCCO1","0.2919","0.0","1","G1","102.133","0.7693","25.982999999999986","7.0","2.0","0.0","2.0","1.0","42.0","0.0","1.0","1.0","1.0","18.46","43.42027879090051","2.1399633186493645","48.041843979966416"
"B-1903","ethanediimidamide, n,n''-dihydroxy-","InChI=1S/C2H6N4O2/c3-1(5-7)2(4)6-8/h5,7H,3-4H2/b2-1-","XYIWQQBZKLUEND-UPHRSURJSA-N","N\C(NO)=C(/N)N=O","-0.7773","0.0","1","G1","118.09600000000002","-1.2244000000000002","26.118000000000013","8.0","6.0","4.0","6.0","2.0","46.0","0.0","0.0","0.0","0.0","113.72999999999999","45.08723792357984","4.027243339066914","119.20671786825557"
"B-1904","3-methyl-4-nitrophenol","InChI=1S/C7H7NO3/c1-5-4-6(9)2-3-7(5)8(10)11/h2-4,9H,1H3","PIIZYNQECPTVEO-UHFFFAOYSA-N","Cc1cc(O)ccc1[N+]([O-])=O","-2.1103","0.0","1","G1","153.13699999999997","1.6088200000000001","39.49820000000002","11.0","3.0","1.0","4.0","1.0","58.0","1.0","0.0","0.0","1.0","63.37","63.243554708589386","3.1960696621259204","295.7372022742227"
"B-1905","c.i. disperse orange 1","InChI=1S/C18H14N4O2/c23-22(24)18-12-10-17(11-13-18)21-20-16-8-6-15(7-9-16)19-14-4-2-1-3-5-14/h1-13,19H","YFVXLROHJBSEDW-UHFFFAOYSA-N","[O-][N+](=O)c1ccc(cc1)N=Nc2ccc(Nc3ccccc3)cc2","-7.5229","0.0","1","G1","318.336","5.753800000000004","93.43910000000001","24.0","5.0","1.0","6.0","5.0","118.0","3.0","0.0","0.0","3.0","79.89","138.195207282222","1.6590704482436824","844.451942481161"
"B-1906","guanidine, 2-benzothiazolyl-","InChI=1S/C8H8N4S/c9-7(10)12-8-11-5-3-1-2-4-6(5)13-8/h1-4H,(H4,9,10,11,12)","QMHWARSFUCGBJK-UHFFFAOYSA-N","NC(N)=Nc1sc2ccccc2n1","-2.4412","0.0","1","G1","192.247","1.2012","55.0898","13.0","3.0","2.0","5.0","1.0","66.0","2.0","0.0","0.0","2.0","77.29","78.91312489687233","2.5597954293256158","422.8668956038609"
"B-1907","2-hexenedioic acid","InChI=1S/C6H8O4/c7-5(8)3-1-2-4-6(9)10/h1,3H,2,4H2,(H,7,8)(H,9,10)","HSBSUGYTMJWPAX-UHFFFAOYSA-N","OC(=O)CCC=CC(O)=O","-1.2045","0.0","1","G1","144.12599999999998","0.49200000000000016","33.64559999999999","10.0","2.0","2.0","4.0","4.0","56.0","0.0","0.0","0.0","0.0","74.6","57.785870272107886","3.3598601449703684","159.13075145540293"
"B-1908","phorate sulfoxide","InChI=1S/C7H17O3PS3/c1-4-9-11(12,10-5-2)13-7-14(8)6-3/h4-7H2,1-3H3","XRQHTUDGPWMPKX-UHFFFAOYSA-N","CCO[P](=S)(OCC)SC[S](=O)CC","-1.5384","0.0","1","G1","276.38500000000005","2.7432000000000016","68.67840000000004","14.0","5.0","0.0","7.0","8.0","86.0","0.0","0.0","0.0","0.0","35.53","97.69520087036834","4.083350427266094","212.2255594286989"
"B-1909","phorate sulfone","InChI=1S/C7H17O4PS3/c1-4-10-12(13,11-5-2)14-7-15(8,9)6-3/h4-7H2,1-3H3","YVPSNUIHHFTTRL-UHFFFAOYSA-N","CCO[P](=S)(OCC)SC[S](=O)(=O)CC","-2.5309","0.0","1","G1","292.38400000000007","2.409300000000001","69.45580000000004","15.0","6.0","0.0","8.0","8.0","92.0","0.0","0.0","0.0","0.0","52.6","100.946345048579","4.371293824985292","304.1969869775611"
"B-1910","etridazole","InChI=1S/C5H5Cl3N2OS/c1-2-11-4-9-3(10-12-4)5(6,7)8/h2H2,1H3","KQTVWCSONPJJPE-UHFFFAOYSA-N","CCOc1snc(n1)C(Cl)(Cl)Cl","-3.3254","0.0","1","G1","247.53400000000002","2.7635000000000014","50.31500000000001","12.0","4.0","0.0","7.0","2.0","68.0","1.0","0.0","0.0","1.0","35.010000000000005","88.7703225940886","2.7727148501325187","259.44116542843454"
"B-1911","mecarbam","InChI=1S/C10H20NO5PS2/c1-5-14-10(13)11(4)9(12)8-19-17(18,15-6-2)16-7-3/h5-8H2,1-4H3","KLGMSAOQDHLCOS-UHFFFAOYSA-N","CCOC(=O)N(C)C(=O)CS[P](=S)(OCC)OCC","-2.5177","0.0","1","G1","329.3800000000001","2.6320000000000006","79.78700000000005","19.0","7.0","0.0","9.0","8.0","112.0","0.0","0.0","0.0","0.0","65.07000000000001","122.61219610978006","4.397208956208479","342.8117132097756"
"B-1912","fenthoate","InChI=1S/C12H17O4PS2/c1-4-16-12(13)11(10-8-6-5-7-9-10)19-17(18,14-2)15-3/h5-9,11H,4H2,1-3H3","XAMUDJHXFNRLCY-UHFFFAOYSA-N","CCOC(=O)C(S[P](=S)(OC)OC)c1ccccc1","-4.4643","0.0","1","G1","320.37199999999996","3.5413000000000023","81.71000000000005","19.0","6.0","0.0","7.0","7.0","106.0","1.0","0.0","0.0","1.0","44.760000000000005","122.28816608801054","3.0012992795481437","444.3024221212612"
"B-1913","chipcote","InChI=1S/CN.CH3.Hg/c1-2;;/h;1H3;","DHKAICYEDDOCRO-UHFFFAOYSA-N","C[Hg]C#N","-0.0821","0.0","1","G1","241.643","0.59808","11.477","4.0","1.0","0.0","2.0","0.0","18.0","0.0","0.0","0.0","0.0","23.79","38.051571956103224","2.4330963097956344","35.79319390447952"
"B-1914","3,5-pyridinedicarboxylic acid, 2,6-dimethyl-","InChI=1S/C9H9NO4/c1-4-6(8(11)12)3-7(9(13)14)5(2)10-4/h3H,1-2H3,(H,11,12)(H,13,14)","WQFXJSOUBPGBGW-UHFFFAOYSA-N","Cc1nc(C)c(cc1C(O)=O)C(O)=O","-2.8089999999999997","0.0","1","G1","195.17399999999998","1.09484","47.62960000000001","14.0","3.0","2.0","5.0","2.0","74.0","1.0","0.0","0.0","1.0","87.49000000000001","80.02233126250947","3.4178886149330863","376.2681356861843"
"B-1915","acid red 18","InChI=1S/C20H14N2O10S3.3Na/c23-16-7-5-11-9-12(33(24,25)26)10-18(35(30,31)32)19(11)20(16)22-21-15-6-8-17(34(27,28)29)14-4-2-1-3-13(14)15;;;/h1-10,21H,(H,24,25,26)(H,27,28,29)(H,30,31,32);;;/q;3*+1/p-3/b22-20+;;;","IVNZBWNBYXERPK-DZGBHZPSSA-K","[Na+].[Na+].[Na+].[O-][S](=O)(=O)c1cc2C=CC(=O)\C(=N/Nc3ccc(c4ccccc34)[S]([O-])(=O)=O)c2c(c1)[S]([O-])(=O)=O","-0.8783","0.29075733365","2","G3","604.4830000000003","-8.023800000000016","118.4803","38.0","12.0","1.0","18.0","5.0","182.0","3.0","0.0","1.0","4.0","213.05999999999997","283.63744581717367","2.4066654295562085e-06","1822.193545468072"