"ID","Name","InChI","InChIKey","SMILES","Solubility","SD","Ocurrences","Group","MolWt","MolLogP","MolMR","HeavyAtomCount","NumHAcceptors","NumHDonors","NumHeteroatoms","NumRotatableBonds","NumValenceElectrons","NumAromaticRings","NumSaturatedRings","NumAliphaticRings","RingCount","TPSA","LabuteASA","BalabanJ","BertzCT"
"B-2136","d-glycero-d-gulo-heptopyranoside, phenyl, á-","InChI=1S/C13H18O7/c14-6-8(15)12-10(17)9(16)11(18)13(20-12)19-7-4-2-1-3-5-7/h1-5,8-18H,6H2","UWYXADYVSWKWAX-UHFFFAOYSA-N","OCC(O)C1OC(Oc2ccccc2)C(O)C(O)C1O","-1.5537","0.0","1","G1","286.28000000000003","-1.7738000000000003","66.84400000000004","20.0","7.0","5.0","7.0","4.0","112.0","1.0","1.0","1.0","2.0","119.61000000000001","115.17842598673782","2.113871160709672","412.44051540435873"
"B-2137","phosphonic acid, 3-(nitrophenyl)-","InChI=1S/C6H6NO5P/c8-7(9)5-2-1-3-6(4-5)13(10,11)12/h1-4H,(H2,10,11,12)","OXWXINKWKITCIH-UHFFFAOYSA-N","O[P](O)(=O)c1cccc(c1)[N+]([O-])=O","0.6835","0.0","1","G1","203.08999999999997","0.3977999999999998","44.77450000000002","13.0","3.0","2.0","7.0","2.0","70.0","1.0","0.0","0.0","1.0","100.66999999999999","73.13578676273664","3.2093911682575897","384.3659305256931"
"B-2138","3-pyridinecarboxylic acid, decyl ester","InChI=1S/C16H25NO2/c1-2-3-4-5-6-7-8-9-13-19-16(18)15-11-10-12-17-14-15/h10-12,14H,2-9,13H2,1H3","OVSJCKDIBDNMMK-UHFFFAOYSA-N","CCCCCCCCCCOC(=O)c1cccnc1","-3.1901","0.0","1","G1","263.381","4.379100000000004","77.12950000000005","19.0","3.0","0.0","3.0","10.0","106.0","1.0","0.0","0.0","1.0","39.19","115.94048168835684","1.9493536257199746","337.8619866614546"
"B-2139","dl-leucine, n-formyl-","InChI=1S/C7H13NO3/c1-5(2)3-6(7(10)11)8-4-9/h4-6H,3H2,1-2H3,(H,8,9)(H,10,11)","HFBHOAHFRNLZGN-UHFFFAOYSA-N","CC(C)CC(NC=O)C(O)=O","-0.7328","0.0","1","G1","159.18499999999997","0.2316999999999998","40.0785","11.0","2.0","2.0","4.0","5.0","64.0","0.0","0.0","0.0","0.0","66.4","65.59604385010078","3.8832617825448077","144.62111245095514"
"B-2141","methanesulfonamide, n-(methylsulfonyl)-","InChI=1S/C2H7NO4S2/c1-8(4,5)3-9(2,6)7/h3H,1-2H3","ICTGBOFCIDHVPA-UHFFFAOYSA-N","C[S](=O)(=O)N[S](C)(=O)=O","0.0402","0.0","1","G1","173.215","-1.5047999999999992","32.823299999999996","9.0","4.0","1.0","7.0","2.0","56.0","0.0","0.0","0.0","0.0","80.31","54.175607110664366","4.4582270815509055","241.6894962569671"
"B-2142","propionic acid, 3-methoxy-, propyl ester","InChI=1S/C7H14O3/c1-3-5-10-7(8)4-6-9-2/h3-6H2,1-2H3","JCMFJIHDWDKYIL-UHFFFAOYSA-N","CCCOC(=O)CCOC","-0.6598","0.0","1","G1","146.18599999999998","0.9761","37.743","10.0","3.0","0.0","3.0","5.0","60.0","0.0","0.0","0.0","0.0","35.53","61.31751627326671","3.0863484262353005","80.85200900961469"
"B-2143","1,1,4,4-tetramethoxy-but-2-ene","InChI=1S/C8H16O4/c1-9-7(10-2)5-6-8(11-3)12-4/h5-8H,1-4H3/b6-5-","ZFGVCDSFRAMNMT-WAYWQWQTSA-N","COC(OC)\C=C/C(OC)OC","0.055","0.0","1","G1","176.21199999999996","0.7804","44.752000000000024","12.0","4.0","0.0","4.0","6.0","72.0","0.0","0.0","0.0","0.0","36.92","73.05842371444906","3.8267962892963663","102.22626787690945"
"B-2144","1h-pyrrole, 2,3-dihydro-1,5-dimethyl-","InChI=1S/C6H11N/c1-6-4-3-5-7(6)2/h4H,3,5H2,1-2H3","MFGQUMAXNNHCNG-UHFFFAOYSA-N","CN1CCC=C1C","0.1265","0.0","1","G1","97.16099999999999","1.2257","31.003999999999987","7.0","1.0","0.0","1.0","0.0","40.0","0.0","0.0","1.0","1.0","3.24","44.62836108430247","2.5387579921231493","94.3531421217447"
"B-2146","phosphonothioic  dihydrazide, p-phenyl-","InChI=1S/C6H11N4PS/c7-9-11(12,10-8)6-4-2-1-3-5-6/h1-5H,7-8H2,(H2,9,10,12)","HDCICIWMRHHDMV-UHFFFAOYSA-N","NN[P](=S)(NN)c1ccccc1","-1.425","0.0","1","G1","202.22300000000004","-0.4519999999999993","55.007200000000005","12.0","3.0","4.0","6.0","3.0","66.0","1.0","0.0","0.0","1.0","76.1","76.38351700155575","3.041596645134811","280.85937643443293"
"B-2147","acetic acid, (3,5-dimethylphenoxy)-","InChI=1S/C10H12O3/c1-7-3-8(2)5-9(4-7)13-6-10(11)12/h3-5H,6H2,1-2H3,(H,11,12)","NIPZZANLNKBKIS-UHFFFAOYSA-N","Cc1cc(C)cc(OCC(O)=O)c1","-2.3527","0.0","1","G1","180.203","1.76684","49.046800000000026","13.0","2.0","1.0","3.0","3.0","70.0","1.0","0.0","0.0","1.0","46.53","76.96047265883006","2.713242192766617","297.6959388329159"
"B-2148","2,8-dichlorodibenzofuran","InChI=1S/C12H6Cl2O/c13-7-1-3-11-9(5-7)10-6-8(14)2-4-12(10)15-11/h1-6H","IVVRJIDVYSPKFZ-UHFFFAOYSA-N","Clc1ccc2oc3ccc(Cl)cc3c2c1","-7.2135","0.0","1","G1","237.08499999999998","4.892800000000002","63.740000000000016","15.0","1.0","0.0","3.0","0.0","74.0","3.0","0.0","0.0","3.0","13.14","96.19559390080755","2.5452302518329004","598.8255911783466"
"B-2149","n-hexyl-lactamide","InChI=1S/C9H19NO2/c1-3-4-5-6-7-10-9(12)8(2)11/h8,11H,3-7H2,1-2H3,(H,10,12)","RUUHGTZPDZPPOC-UHFFFAOYSA-N","CCCCCCNC(=O)C(C)O","-0.9487","0.0","1","G1","173.256","1.0636999999999999","48.832500000000024","12.0","2.0","2.0","3.0","6.0","72.0","0.0","0.0","0.0","0.0","49.33","74.16440597885023","3.143237500372718","123.69694286392863"
"B-2150","2-acetoxy-propionic acid butyl ester","InChI=1S/C9H16O4/c1-4-5-6-12-9(11)7(2)13-8(3)10/h7H,4-6H2,1-3H3","FRKISMRVEIRXFS-UHFFFAOYSA-N","CCCCOC(=O)C(C)OC(C)=O","-0.7536","0.0","1","G1","188.22299999999996","1.2813","47.09500000000003","13.0","4.0","0.0","4.0","5.0","76.0","0.0","0.0","0.0","0.0","52.6","78.2089226021037","3.628682429201735","176.4535151183479"
"B-2151","1h-purine-2,6-dione, 8-ethyl-3,7-dihydro-1,3,7-t","InChI=1S/C10H14N4O2/c1-5-6-11-8-7(12(6)2)9(15)14(4)10(16)13(8)3/h5H2,1-4H3","DRWCPERSPGFNIK-UHFFFAOYSA-N","CCc1nc2N(C)C(=O)N(C)C(=O)c2n1C","-1.5687","0.0","1","G1","222.24799999999996","-0.4669000000000001","60.57400000000002","16.0","6.0","0.0","6.0","1.0","86.0","2.0","0.0","0.0","2.0","61.82","91.75884124694254","3.1253965731057147","674.6545748369492"
"B-2152","imidodicarbonimidic diamide, n-2-naphthalenyl-","InChI=1S/C12H13N5/c13-11(14)17-12(15)16-10-6-5-8-3-1-2-4-9(8)7-10/h1-7H,(H6,13,14,15,16,17)","RDLIBCPWPNCFBW-UHFFFAOYSA-N","NC(N)=NC(N)=Nc1ccc2ccccc2c1","-2.5497","0.0","1","G1","227.27100000000002","1.0594000000000003","71.04020000000001","17.0","1.0","3.0","5.0","1.0","86.0","2.0","0.0","0.0","2.0","102.78","98.6532689427838","2.402415219664146","596.6224069980343"
"B-2153","(2,5-dioxoimidazolidin-4-yl)acetic acid","InChI=1S/C5H6N2O4/c8-3(9)1-2-4(10)7-5(11)6-2/h2H,1H2,(H,8,9)(H2,6,7,10,11)","DQQLZADYSWBCOX-UHFFFAOYSA-N","OC(=O)CC1NC(=O)NC1=O","-1.1517","0.0","1","G1","158.113","-1.3309000000000002","32.71519999999999","11.0","3.0","3.0","6.0","2.0","60.0","0.0","1.0","1.0","1.0","95.5","61.57171275143014","2.534438673083989","224.52230736518896"
"B-2154","phenol, 2-methyl-5-nitro-","InChI=1S/C7H7NO3/c1-5-2-3-6(8(10)11)4-7(5)9/h2-4,9H,1H3","UMFDLIXUUJMPSI-UHFFFAOYSA-N","Cc1ccc(cc1O)[N+]([O-])=O","-2.1851","0.0","1","G1","153.137","1.6088200000000001","39.49820000000002","11.0","3.0","1.0","4.0","1.0","58.0","1.0","0.0","0.0","1.0","63.37","63.243554708589386","3.1515496683060507","295.73720227422257"
"B-2155","carbamothioic acid, s-[2-oxo-2-(phenylamino)ethy","InChI=1S/C9H10N2O2S/c10-9(13)14-6-8(12)11-7-4-2-1-3-5-7/h1-5H,6H2,(H2,10,13)(H,11,12)","CEINNGQDMFZTJK-UHFFFAOYSA-N","NC(=O)SCC(=O)Nc1ccccc1","-1.3228","0.0","1","G1","210.258","1.437","57.11310000000002","14.0","3.0","2.0","5.0","3.0","74.0","1.0","0.0","0.0","1.0","72.19","85.86213656876033","2.3807618619125828","326.8436560484995"
"B-2156","butanedioic acid, (diphenylmethylene)-, 1-ethyl","InChI=1S/C19H18O4/c1-2-23-19(22)16(13-17(20)21)18(14-9-5-3-6-10-14)15-11-7-4-8-12-15/h3-12H,2,13H2,1H3,(H,20,21)","DLPKPLGMFNWETI-UHFFFAOYSA-N","CCOC(=O)C(CC(O)=O)=C(c1ccccc1)c2ccccc2","-2.1908","0.0","1","G1","310.349","3.5263000000000018","87.79180000000004","23.0","3.0","1.0","4.0","6.0","118.0","2.0","0.0","0.0","2.0","63.6","134.58431227594343","2.6829209513675774","661.1641761574338"
"B-2157","6h-purin-6-one, 2-chloro-1,7-dihydro-7-methyl-,","InChI=1S/C6H7ClN6/c1-13-2-9-4-3(13)5(12-8)11-6(7)10-4/h2H,8H2,1H3,(H,10,11,12)","DSBMZQSBWWASSE-UHFFFAOYSA-N","Cn1cnc2nc(Cl)nc(NN)c12","-1.1427","0.0","1","G1","198.61700000000002","0.30229999999999985","49.1241","13.0","6.0","2.0","7.0","1.0","68.0","2.0","0.0","0.0","2.0","81.65","78.71924074381535","2.8478790800873233","449.56635705517834"
"B-2158","4h-pyran-3,5-dicarboxylic acid, 2,6-dimethyl-4-o","InChI=1S/C13H16O6/c1-5-17-12(15)9-7(3)19-8(4)10(11(9)14)13(16)18-6-2/h5-6H2,1-4H3","JISSLTOKQRHSMJ-UHFFFAOYSA-N","CCOC(=O)C1=C(C)OC(=C(C(=O)OCC)C1=O)C","-1.5255","0.0","1","G1","268.26499999999993","1.61004","66.36500000000002","19.0","6.0","0.0","6.0","4.0","104.0","1.0","0.0","0.0","1.0","82.81","109.86741361782393","3.4288325241650823","509.73724885048773"
"B-2159","benzenamine, 2-iodo-5-nitro-","InChI=1S/C6H5IN2O2/c7-5-2-1-4(9(10)11)3-6(5)8/h1-3H,8H2","VKQOHFHGWCXKOA-UHFFFAOYSA-N","Nc1cc(ccc1I)[N+]([O-])=O","-4.4216","0.0","1","G1","264.022","1.7816","50.2258","11.0","3.0","1.0","5.0","1.0","58.0","1.0","0.0","0.0","1.0","69.16","76.68610766005311","3.1515496683060507","300.6337992264624"
"B-2160","l-glutamic acid, n,n-bis(2-cyanoethyl)-","InChI=1S/C11H15N3O4/c12-5-1-7-14(8-2-6-13)9(11(17)18)3-4-10(15)16/h9H,1-4,7-8H2,(H,15,16)(H,17,18)","JQXSGQACFFFOIU-UHFFFAOYSA-N","OC(=O)CCC(N(CCC#N)CCC#N)C(O)=O","-0.2275","0.0","1","G1","253.25799999999998","0.4337600000000001","60.32660000000003","18.0","5.0","2.0","7.0","9.0","98.0","0.0","0.0","0.0","0.0","125.42000000000002","104.845176909416","4.626617784110546","351.4650648139805"
"B-2161","dl-methionine, n,n-bis(2-cyanoethyl)-","InChI=1S/C11H17N3O2S/c1-17-9-4-10(11(15)16)14(7-2-5-12)8-3-6-13/h10H,2-4,7-9H2,1H3,(H,15,16)","JXPCJFWAMGPAQN-UHFFFAOYSA-N","CSCCC(N(CCC#N)CCC#N)C(O)=O","-1.3279","0.0","1","G1","255.34299999999996","1.32206","66.45580000000004","17.0","5.0","1.0","6.0","9.0","94.0","0.0","0.0","0.0","0.0","88.12","106.01253108254147","4.500564983828521","290.8188542294144"
"B-2162","propanoic acid, 2-hydroxy-, octyl ester","InChI=1S/C11H22O3/c1-3-4-5-6-7-8-9-14-11(13)10(2)12/h10,12H,3-9H2,1-2H3","SFBIZPBTKROSDE-UHFFFAOYSA-N","CCCCCCCCOC(=O)C(C)O","-1.2726","0.0","1","G1","202.294","2.2709000000000006","56.01580000000005","14.0","3.0","1.0","3.0","8.0","84.0","0.0","0.0","0.0","0.0","46.53","86.45797325354228","3.0958455805317366","143.46807020414428"
"B-2163","2h-1,4-benzoxazin-3(4h)-one","InChI=1S/C8H7NO2/c10-8-5-11-7-4-2-1-3-6(7)9-8/h1-4H,5H2,(H,9,10)","QRCGFTXRXYMJOS-UHFFFAOYSA-N","O=C1COc2ccccc2N1","-2.5716","0.0","1","G1","149.14899999999997","1.0174999999999998","40.56670000000001","11.0","2.0","1.0","3.0","0.0","56.0","1.0","0.0","1.0","2.0","38.33","63.98038570791964","2.4141310245037473","295.8984617329528"
"B-2164","2-butenedioic acid, 2-propyl-, (e)-","InChI=1S/C7H10O4/c1-2-3-5(7(10)11)4-6(8)9/h4H,2-3H2,1H3,(H,8,9)(H,10,11)/b5-4+","CCKSYUMJLIMSQK-SNAWJCMRSA-N","CCC\C(=C/C(O)=O)C(O)=O","-1.1538","0.0","1","G1","158.15299999999996","0.8821000000000001","38.26259999999999","11.0","2.0","2.0","4.0","4.0","62.0","0.0","0.0","0.0","0.0","74.6","64.15081238650448","4.323566371666372","192.6172545706481"
"B-2165","1,4-piperazinedicarboxylic acid, diethyl ester","InChI=1S/C10H18N2O4/c1-3-15-9(13)11-5-7-12(8-6-11)10(14)16-4-2/h3-8H2,1-2H3","NAEAAGULDNVNCW-UHFFFAOYSA-N","CCOC(=O)N1CCN(CC1)C(=O)OCC","-0.7288","0.0","1","G1","230.26399999999995","0.9170000000000003","57.19000000000003","16.0","4.0","0.0","6.0","2.0","92.0","0.0","1.0","1.0","1.0","59.08","95.08770090337781","2.3310803559126754","223.2035843944632"
"B-2166","2,6-di-sec-butylphenol","InChI=1S/C14H22O/c1-5-10(3)12-8-7-9-13(14(12)15)11(4)6-2/h7-11,15H,5-6H2,1-4H3/t10-,11+","FHTGJZOULSYEOB-PHIMTYICSA-N","CC[C@@H](C)c1cccc([C@@H](C)CC)c1O","-5.0593","0.0","1","G1","206.32899999999995","4.4192000000000045","65.51880000000004","15.0","1.0","1.0","1.0","4.0","84.0","1.0","0.0","0.0","1.0","20.23","93.14517378686584","3.106332489284297","288.8647809734401"
"B-2167","pyrene, 1-nitro-","InChI=1S/C16H9NO2/c18-17(19)14-9-7-12-5-4-10-2-1-3-11-6-8-13(14)16(12)15(10)11/h1-9H","ALRLPDGCPYIVHP-UHFFFAOYSA-N","[O-][N+](=O)c1ccc2ccc3cccc4ccc1c2c34","-7.3213","0.0","1","G1","247.253","4.492200000000002","76.80040000000004","19.0","2.0","0.0","3.0","1.0","90.0","4.0","0.0","0.0","4.0","43.14","108.10839731733796","2.381198790112986","927.5168646967958"
"B-2168","hydrazinecarboxamide, 1-ethyl-2-[(5-nitro-2-fura","InChI=1S/C8H10N4O4/c1-2-11(8(9)13)10-5-6-3-4-7(16-6)12(14)15/h3-5H,2H2,1H3,(H2,9,13)/b10-5+","JGPNCLKRECLYTO-BJMVGYQFSA-N","CCN(/N=C/c1oc(cc1)[N+]([O-])=O)C(N)=O","-2.9395","0.0","1","G1","226.19199999999995","0.9223000000000001","54.919800000000016","16.0","5.0","1.0","8.0","4.0","86.0","1.0","0.0","0.0","1.0","114.97","90.465181537015","2.7503980104629417","425.4277303821598"
"B-2169","6-phenylcaproic acid","InChI=1S/C12H16O2/c13-12(14)10-6-2-5-9-11-7-3-1-4-8-11/h1,3-4,7-8H,2,5-6,9-10H2,(H,13,14)","JTXZPQIXIXYMDY-UHFFFAOYSA-N","OC(=O)CCCCCc1ccccc1","-2.6026","0.0","1","G1","192.25800000000004","2.874100000000001","56.249800000000036","14.0","1.0","1.0","2.0","6.0","76.0","1.0","0.0","0.0","1.0","37.3","84.57681165811641","2.075081895525038","266.9100351687179"
"B-2170","3-methyl-3-heptanol","InChI=1S/C8H18O/c1-4-6-7-8(3,9)5-2/h9H,4-7H2,1-3H3","PQOSNJHBSNZITJ-UHFFFAOYSA-N","CCCCC(C)(O)CC","-1.7356","0.06640000000000001","2","G3","130.23099999999997","2.3376","40.439800000000005","9.0","1.0","1.0","1.0","4.0","56.0","0.0","0.0","0.0","0.0","20.23","58.088079580801804","3.330074215693167","66.96788691072805"
"B-2171","1-cyclopentene-1-carboxylic acid, 2,3,3-trimethy","InChI=1S/C9H14O2/c1-6-7(8(10)11)4-5-9(6,2)3/h4-5H2,1-3H3,(H,10,11)","CVPXQMUHAZMTEO-UHFFFAOYSA-N","CC1=C(CCC1(C)C)C(O)=O","-2.8871","0.0","1","G1","154.209","2.2075","43.350800000000014","11.0","1.0","1.0","2.0","1.0","62.0","0.0","0.0","1.0","1.0","37.3","66.9191096095287","2.9879737390397145","223.71723228076573"
"B-2172","chlorpyrifos methyl","InChI=1S/C7H7Cl3NO3PS/c1-12-15(16,13-2)14-7-5(9)3-4(8)6(10)11-7/h3H,1-2H3","HRBKVYFZANMGRE-UHFFFAOYSA-N","CO[P](=S)(OC)Oc1nc(Cl)c(Cl)cc1Cl","-4.831","0.04008601862107138","3","G5","322.53700000000003","3.9379000000000017","68.19800000000002","16.0","5.0","0.0","9.0","4.0","90.0","1.0","0.0","0.0","1.0","40.58","113.01129780161531","3.0637668536422646","437.130381956355"
"B-2173","triamcinolone hexacetonide","InChI=1S/C30H41FO7/c1-25(2,3)15-24(35)36-16-22(34)30-23(37-26(4,5)38-30)13-20-19-9-8-17-12-18(32)10-11-27(17,6)29(19,31)21(33)14-28(20,30)7/h10-12,19-21,23,33H,8-9,13-16H2,1-7H3/t19-,20-,21-,23+,27-,28-,29-,30+/m0/s1","TZIZWYVVGLXXFV-FLRHRWPCSA-N","CC(C)(C)CC(=O)OCC(=O)[C@@]12OC(C)(C)O[C@@H]1C[C@H]3[C@@H]4CCC5=CC(=O)C=C[C@]5(C)[C@@]4(F)[C@@H](O)C[C@]23C","-5.1244","0.0","1","G1","532.6490000000002","4.405900000000004","136.5438","38.0","7.0","1.0","8.0","4.0","210.0","0.0","4.0","5.0","5.0","99.13000000000001","223.69918165709066","1.511026481335621","1133.9132330640352"
"B-2174","cyclopropane, ethoxy-","InChI=1S/C5H10O/c1-2-6-5-3-4-5/h5H,2-4H2,1H3","LZTCEQQSARXBHE-UHFFFAOYSA-N","CCOC1CC1","-0.6407","0.0","1","G1","86.13400000000001","1.1853","24.64799999999999","6.0","1.0","0.0","1.0","2.0","36.0","0.0","1.0","1.0","1.0","9.23","38.30673356139363","1.8762858948376273","39.20310343869658"
"B-2175","1h-purine-1-acetic acid, 2,3,6,7-tetrahydro-3,7-","InChI=1S/C9H10N4O4/c1-11-4-10-7-6(11)8(16)13(3-5(14)15)9(17)12(7)2/h4H,3H2,1-2H3,(H,14,15)/p-1","YCTSCXLOPJCPDH-UHFFFAOYSA-M","Cn1cnc2N(C)C(=O)N(CC([O-])=O)C(=O)c12","-1.3769","0.0","1","G1","237.19499999999994","-2.816399999999999","55.22200000000001","17.0","8.0","0.0","8.0","2.0","90.0","2.0","0.0","0.0","2.0","101.94999999999999","94.34965498478573","2.943934293328045","720.8966854642283"
"B-2176","3,6-dimethylpiperazine-2,5-dione","InChI=1S/C6H10N2O2/c1-3-5(9)8-4(2)6(10)7-3/h3-4H,1-2H3,(H,7,10)(H,8,9)/t3-,4+","WWISPHBAYBECQZ-ZXZARUISSA-N","C[C@@H]1NC(=O)[C@@H](C)NC1=O","-0.1528","0.0","1","G1","142.158","-0.9905999999999999","35.209399999999995","10.0","2.0","2.0","4.0","0.0","56.0","0.0","1.0","1.0","1.0","58.2","58.98089901358698","2.631435737817297","158.5866297400412"
"B-2177","2-pyrrolidinecarboxamide, 5-oxo-n-phenyl-","InChI=1S/C11H12N2O2/c14-10-7-6-9(13-10)11(15)12-8-4-2-1-3-5-8/h1-5,9H,6-7H2,(H,12,15)(H,13,14)","DLHWPLFJAJCANU-UHFFFAOYSA-N","O=C1CCC(N1)C(=O)Nc2ccccc2","-1.3278","0.0","1","G1","204.229","0.9036999999999998","56.236400000000025","15.0","2.0","2.0","4.0","2.0","78.0","1.0","1.0","1.0","2.0","58.2","87.67305110525442","1.9556638322594415","375.4341282999036"
"B-2178","phenol, 4-(phenylthio)-","InChI=1S/C12H10OS/c13-10-6-8-12(9-7-10)14-11-4-2-1-3-5-11/h1-9,13H","XAYCNCYFKLSMGR-UHFFFAOYSA-N","Oc1ccc(Sc2ccccc2)cc1","-2.7745","0.0","1","G1","202.27800000000005","3.543400000000002","58.67180000000003","14.0","2.0","1.0","2.0","2.0","70.0","2.0","0.0","0.0","2.0","20.23","87.40584110312226","2.155110851234288","394.42672290326925"
"B-2179","ethane, 1,1'-[oxybis(methyleneoxy)]bis-","InChI=1S/C6H14O3/c1-3-7-5-9-6-8-4-2/h3-6H2,1-2H3","ANPYLYUCGAFKNQ-UHFFFAOYSA-N","CCOCOCOCC","-0.1277","0.0","1","G1","134.175","0.991","34.07099999999999","9.0","3.0","0.0","3.0","6.0","56.0","0.0","0.0","0.0","0.0","27.69","55.90459728833323","2.595082706793886","41.567631415296866"
"B-2180","naphtho[1,2-c]furan-1(3h)-one","InChI=1S/C12H8O2/c13-12-11-9(7-14-12)6-5-8-3-1-2-4-10(8)11/h1-6H,7H2","ARSOXHMEZHBPOS-UHFFFAOYSA-N","O=C1OCc2ccc3ccccc3c12","-3.3062","0.0","1","G1","184.194","2.510200000000001","53.067500000000024","14.0","2.0","0.0","2.0","0.0","68.0","2.0","0.0","1.0","3.0","26.3","81.11218805604679","2.471276757014713","528.8328093513567"
"B-2181","glycine, n-(2-furanylcarbonyl)-","InChI=1S/C7H7NO4/c9-6(10)4-8-7(11)5-2-1-3-12-5/h1-3H,4H2,(H,8,11)(H,9,10)","KSPQDMRTZZYQLM-UHFFFAOYSA-N","OC(=O)CNC(=O)c1occc1","-0.7272","0.0","1","G1","169.136","0.0939999999999997","38.677000000000014","12.0","3.0","2.0","5.0","3.0","64.0","1.0","0.0","0.0","1.0","79.54","67.98769886265521","2.450965128225179","277.60629960486415"
"B-2182","5-thiazolecarboxylic acid, 2-[[(4-aminophenyl)su","InChI=1S/C10H9N3O4S2/c11-6-1-3-7(4-2-6)19(16,17)13-10-12-5-8(18-10)9(14)15/h1-5H,11H2,(H,12,13)(H,14,15)","UVWBGXXTQBAIOZ-UHFFFAOYSA-N","Nc1ccc(cc1)[S](=O)(=O)Nc2sc(cn2)C(O)=O","-2.8741","0.0","1","G1","299.333","1.2243000000000002","70.73620000000001","19.0","6.0","3.0","9.0","4.0","100.0","2.0","0.0","0.0","2.0","122.38","112.31973531659122","2.252455337795675","706.6309248626102"
"B-2184","butanedioic acid, 2,2-diethyl-","InChI=1S/C8H14O4/c1-3-8(4-2,7(11)12)5-6(9)10/h3-5H2,1-2H3,(H,9,10)(H,11,12)","WKRCUUPMCASSBN-UHFFFAOYSA-N","CCC(CC)(CC(O)=O)C(O)=O","-0.7962","0.0","1","G1","174.19599999999997","1.3521","42.9036","12.0","2.0","2.0","4.0","5.0","70.0","0.0","0.0","0.0","0.0","74.6","71.20535753308538","4.575138616166866","181.4968817653618"
"B-2185","benzenepropanoic acid, .alpha.,.beta.-dihydroxy-","InChI=1S/C9H10O4/c10-7(8(11)9(12)13)6-4-2-1-3-5-6/h1-5,7-8,10-11H,(H,12,13)","BNOUUNAFHCJIJD-UHFFFAOYSA-N","OC(C(O)c1ccccc1)C(O)=O","-0.3063","0.0","1","G1","182.17499999999998","0.16549999999999992","45.044400000000024","13.0","3.0","3.0","4.0","3.0","70.0","1.0","0.0","0.0","1.0","77.75999999999999","75.0704528193186","2.792516902249824","282.92599275295936"
"B-2186","hydrocinnamic acid, .alpha.-ethylidene-","InChI=1S/C11H12O2/c1-2-10(11(12)13)8-9-6-4-3-5-7-9/h2-7H,8H2,1H3,(H,12,13)","LUHNRLWMHQQYAM-UHFFFAOYSA-N","CC=C(Cc1ccccc1)C(O)=O","-2.5648","0.0","1","G1","176.21499999999997","2.26","51.53880000000002","13.0","1.0","1.0","2.0","3.0","68.0","1.0","0.0","0.0","1.0","37.3","77.52226651153553","2.7442885049353247","312.1219806834977"
"B-2187","benzoic acid, 4-[(3-pyridinylcarbonyl)amino]-","InChI=1S/C13H10N2O3/c16-12(10-2-1-7-14-8-10)15-11-5-3-9(4-6-11)13(17)18/h1-8H,(H,15,16)(H,17,18)","LWFBUVHQVCTCKN-UHFFFAOYSA-N","OC(=O)c1ccc(NC(=O)c2cccnc2)cc1","-3.0832","0.0","1","G1","242.234","2.0321","65.59150000000001","18.0","3.0","2.0","5.0","3.0","90.0","2.0","0.0","0.0","2.0","79.29","103.10516967119231","2.102582404693958","564.5500449342088"