"ID","Name","InChI","InChIKey","SMILES","Solubility","SD","Ocurrences","Group","MolWt","MolLogP","MolMR","HeavyAtomCount","NumHAcceptors","NumHDonors","NumHeteroatoms","NumRotatableBonds","NumValenceElectrons","NumAromaticRings","NumSaturatedRings","NumAliphaticRings","RingCount","TPSA","LabuteASA","BalabanJ","BertzCT"
"B-801","ethanol, 2,2'-(ethylimino)bis-","InChI=1S/C6H15NO2/c1-2-7(3-5-8)4-6-9/h8-9H,2-6H2,1H3/p+1","AKNUHUCEWALCOI-UHFFFAOYSA-O","CC[NH+](CCO)CCO","0.8755","0.0","1","G1","134.199","-2.1241999999999983","35.40929999999999","9.0","2.0","3.0","3.0","5.0","56.0","0.0","0.0","0.0","0.0","44.900000000000006","55.91226277440798","3.1753410823958332","53.01955000865388"
"B-802","furaltadone","InChI=1S/C13H16N4O6/c18-13-16(14-7-10-1-2-12(22-10)17(19)20)9-11(23-13)8-15-3-5-21-6-4-15/h1-2,7,11H,3-6,8-9H2/b14-7+","YVQVOQKFMFRVGR-VGOFMYFVSA-N","[O-][N+](=O)c1oc(cc1)/C=N/N2CC(CN3CCOCC3)OC2=O","-2.6359","0.0","1","G1","324.29300000000006","0.6747000000000001","77.19040000000004","23.0","8.0","0.0","10.0","5.0","124.0","1.0","2.0","2.0","3.0","110.65","130.92526323414398","1.5414337097331927","609.360844736158"
"B-803","nithiazide","InChI=1S/C6H8N4O3S/c1-2-7-5(11)9-6-8-3-4(14-6)10(12)13/h3H,2H2,1H3,(H2,7,8,9,11)","FQSUTLQHSDLLAN-UHFFFAOYSA-N","CCNC(=O)Nc1sc(cn1)[N+]([O-])=O","-2.8578","0.0","1","G1","216.22199999999998","1.1927","51.4638","14.0","5.0","2.0","8.0","3.0","76.0","1.0","0.0","0.0","1.0","97.16","83.30046290380443","2.594539636377339","350.6007453106909"
"B-804","1,2-ethanediamine, n,n'-bis(phenylmethyl)-","InChI=1S/C16H20N2/c1-3-7-15(8-4-1)13-17-11-12-18-14-16-9-5-2-6-10-16/h1-10,17-18H,11-14H2","JUHORIMYRDESRB-UHFFFAOYSA-N","C(CNCc1ccccc1)NCc2ccccc2","-1.7865","0.28825","2","G3","240.35","2.5660000000000007","76.29740000000004","18.0","2.0","2.0","2.0","7.0","94.0","2.0","0.0","0.0","2.0","24.06","109.04799015036353","1.5431740953316218","381.8646528682864"
"B-806","fenaminosulf","InChI=1S/C8H11N3O3S.Na/c1-11(2)8-5-3-7(4-6-8)9-10-15(12,13)14;/h3-6H,1-2H3,(H,12,13,14);/q;+1/p-1","IWDQPCIQCXRBQP-UHFFFAOYSA-M","[Na+].CN(C)c1ccc(cc1)N=N[S]([O-])(=O)=O","-1.0991","0.0","1","G1","251.243","-1.6994999999999976","54.98220000000002","16.0","5.0","0.0","8.0","3.0","82.0","1.0","0.0","0.0","1.0","85.16","116.54531200636369","2.2499990861253845e-06","455.92180891040334"
"B-807","benzene, 1-methoxy-4-(2-propenyl)-","InChI=1S/C10H12O/c1-3-4-9-5-7-10(11-2)8-6-9/h3,5-8H,1,4H2,2H3","ZFMSMUAANRJZFM-UHFFFAOYSA-N","COc1ccc(CC=C)cc1","-2.9209","0.0","1","G1","148.205","2.4237","46.895000000000024","11.0","1.0","0.0","1.0","3.0","58.0","1.0","0.0","0.0","1.0","9.23","67.31511377440603","2.7366739543410024","223.13302247817728"
"B-808","cyclopentylproprionic acid","InChI=1S/C8H14O2/c9-8(10)6-5-7-3-1-2-4-7/h7H,1-6H2,(H,9,10)","ZRPLANDPDWYOMZ-UHFFFAOYSA-N","OC(=O)CCC1CCCC1","-1.7691","0.0","1","G1","142.19799999999998","2.0414000000000003","38.8278","10.0","1.0","1.0","2.0","3.0","58.0","0.0","1.0","1.0","1.0","37.3","61.24377052731636","2.0664853449426195","114.42599881712918"
"B-810","butanedioic acid, dibutyl ester","InChI=1S/C12H22O4/c1-3-5-9-15-11(13)7-8-12(14)16-10-6-4-2/h3-10H2,1-2H3","YUXIBTJKHLUKBD-UHFFFAOYSA-N","CCCCOC(=O)CCC(=O)OCCCC","-3.0006","0.0","1","G1","230.30399999999992","2.4532000000000007","60.968000000000046","16.0","4.0","0.0","4.0","9.0","94.0","0.0","0.0","0.0","0.0","52.60000000000001","97.30374894529355","3.3998242191485164","179.19544121138722"
"B-811","diethyl maleate","InChI=1S/C8H12O4/c1-3-11-7(9)5-6-8(10)12-4-2/h5-6H,3-4H2,1-2H3/b6-5-","IEPRKVQEAMIZSS-WAYWQWQTSA-N","CCOC(=O)\C=C/C(=O)OCC","-1.0899","0.01120739000000004","2","G3","172.17999999999995","0.6688","42.40600000000002","12.0","4.0","0.0","4.0","4.0","68.0","0.0","0.0","0.0","0.0","52.60000000000001","71.15437745552283","3.7281604099567245","163.49688176536182"
"B-812","diethylhexanedioate","InChI=1S/C10H18O4/c1-3-13-9(11)7-5-6-8-10(12)14-4-2/h3-8H2,1-2H3","VIZORQUEIQEFRT-UHFFFAOYSA-N","CCOC(=O)CCCCC(=O)OCC","-1.6795","0.0","1","G1","202.24999999999997","1.673","51.73400000000004","14.0","4.0","0.0","4.0","7.0","82.0","0.0","0.0","0.0","0.0","52.60000000000001","84.57386471650032","3.2823051857661723","156.96081175542733"
"B-815","decamethyltetrasiloxane","InChI=1S/C10H30O3Si4/c1-14(2,3)11-16(7,8)13-17(9,10)12-15(4,5)6/h1-10H3","YFCGDEUVHLPRCZ-UHFFFAOYSA-N","C[Si](C)(C)O[Si](C)(C)O[Si](C)(C)O[Si](C)(C)C","-7.6637","0.0","1","G1","310.69100000000003","4.109600000000003","84.91100000000004","17.0","3.0","0.0","7.0","6.0","104.0","0.0","0.0","0.0","0.0","27.69","111.62828590087759","4.590458727161032","227.2570749583921"
"B-816","dicrotophos","InChI=1S/C8H16NO5P/c1-7(6-8(10)9(2)3)14-15(11,12-4)13-5/h6H,1-5H3/b7-6+","VEENJGZXVHKXNB-VOTSOKGWSA-N","CO[P](=O)(OC)OC(/C)=C/C(=O)N(C)C","0.6249","0.0","1","G1","237.19199999999998","1.3959","55.16050000000003","15.0","5.0","0.0","7.0","5.0","88.0","0.0","0.0","0.0","0.0","65.07000000000001","89.41584492966442","4.5464432183205945","291.4071541962021"
"B-817","3-iodopropionic acid","InChI=1S/C3H5IO2/c4-2-1-3(5)6/h1-2H2,(H,5,6)","KMRNTNDWADEIIX-UHFFFAOYSA-N","OC(=O)CCI","-0.43","0.0","1","G1","199.97500000000002","0.8961000000000001","31.139799999999994","6.0","1.0","1.0","3.0","2.0","36.0","0.0","0.0","0.0","0.0","37.3","49.68672922990618","2.8312571099313644","52.75488750216347"
"B-819","malonic acid","InChI=1S/C3H4O4/c4-2(5)1-3(6)7/h1H2,(H,4,5)(H,6,7)","OFOBLEOULBTSOW-UHFFFAOYSA-N","OC(=O)CC(O)=O","0.8652","0.15239999999999998","2","G3","104.06099999999999","-0.4543","19.888599999999997","7.0","2.0","2.0","4.0","2.0","40.0","0.0","0.0","0.0","0.0","74.6","39.380646961102315","3.318019590380522","83.10802962390817"
"B-820","4-thiazolidinone, 2-thioxo-","InChI=1S/C3H3NOS2/c5-2-1-7-3(6)4-2/h1H2,(H,4,5,6)","KIWUVOGUEXMXSV-UHFFFAOYSA-N","O=C1CSC(=S)N1","-1.7723","0.0","1","G1","133.197","0.13430000000000003","33.198699999999995","7.0","3.0","1.0","4.0","0.0","38.0","0.0","1.0","1.0","1.0","29.1","50.656578659315464","2.5537050272065858","108.10331482049533"
"B-821","2-thiouracil","InChI=1S/C4H4N2OS/c7-3-1-2-5-4(8)6-3/h1-2H,(H2,5,6,7,8)","ZEMGGZBWXRYJHK-UHFFFAOYSA-N","O=C1NC(=S)NC=C1","-2.2573","0.007850000000000135","2","G3","128.156","0.43248999999999993","32.247400000000006","8.0","2.0","2.0","4.0","0.0","42.0","1.0","0.0","0.0","1.0","48.65","50.39100142863863","3.5021170388304435","248.361953762075"
"B-822","2-hydroxypyridine","InChI=1S/C5H5NO/c7-5-3-1-2-4-6-5/h1-4H,(H,6,7)","UBQKCCHYAOITMY-UHFFFAOYSA-N","O=C1NC=CC=C1","1.0218","0.0","1","G1","95.10099999999998","0.37490000000000007","27.062699999999996","7.0","1.0","1.0","2.0","0.0","36.0","1.0","0.0","0.0","1.0","32.86","40.81257320048724","3.27532977603021","173.77657195858635"
"B-823","acetamide, n-(2-hydroxyethyl)-","InChI=1S/C4H9NO2/c1-4(7)5-2-3-6/h6H,2-3H2,1H3,(H,5,7)","PVCJKHHOXFKFRP-UHFFFAOYSA-N","CC(=O)NCCO","0.9867","0.0","1","G1","103.121","-0.8852","25.76949999999999","7.0","2.0","2.0","3.0","2.0","42.0","0.0","0.0","0.0","0.0","49.33","42.339695406867186","2.8219389370591843","62.71013448036486"
"B-825","1,2-hydrazinecarbothioamide","InChI=1S/C2H6N4S2/c3-1(7)5-6-2(4)8/h(H3,3,5,7)(H3,4,6,8)","KCOYHFNCTWXETP-UHFFFAOYSA-N","NC(=S)NNC(N)=S","-1.7965","0.0","1","G1","150.232","-1.4322","39.84219999999999","8.0","2.0","4.0","6.0","0.0","46.0","0.0","0.0","0.0","0.0","76.1","57.5713954181124","3.1818458670936187","96.60593781761291"
"B-827","nabam","InChI=1S/C4H8N2S4.2Na/c7-3(8)5-1-2-6-4(9)10;;/h1-2H2,(H2,5,7,8)(H2,6,9,10);;/q;2*+1/p-2","UQJQVUOTMVCFHX-UHFFFAOYSA-L","[Na+].[Na+].[S-]C(=S)NCCNC([S-])=S","-0.1078","0.0","1","G1","256.354","-6.162799999999998","55.93140000000001","12.0","4.0","2.0","8.0","3.0","58.0","0.0","0.0","0.0","0.0","24.06","138.7882948048726","-4.0499994510000764e-07","127.01955000865388"
"B-828","piperazine hydrochloride","InChI=1S/C4H10N2.2ClH/c1-2-6-4-3-5-1;;/h5-6H,1-4H2;2*1H","CVVIJWRCGSYCMB-UHFFFAOYSA-N","[H+].[H+].[Cl-].[Cl-].C1CNCCN1","0.4112","0.0","1","G1","159.06","-6.587799999999998","27.963399999999993","8.0","2.0","2.0","4.0","0.0","52.0","0.0","1.0","1.0","1.0","24.06","65.20375382879612","-4.499999898750002e-08","34.72905595320056"
"B-829","n-hexyl acetate","InChI=1S/C8H16O2/c1-3-4-5-6-7-10-8(2)9/h3-7H2,1-2H3","AOGQPLXWSUTHQB-UHFFFAOYSA-N","CCCCCCOC(C)=O","-2.451","0.0","1","G1","144.21399999999997","2.1298000000000004","40.775000000000006","10.0","2.0","0.0","2.0","5.0","60.0","0.0","0.0","0.0","0.0","26.3","62.56891315815644","2.8385891218139165","89.25838096618138"
"B-831","1-hexanamine, n-hexyl-","InChI=1S/C12H27N/c1-3-5-7-9-11-13-12-10-8-6-4-2/h13H,3-12H2,1-2H3","PXSXRABJBXYMFT-UHFFFAOYSA-N","CCCCCCNCCCCCC","-3.1574","0.0","1","G1","185.35499999999996","3.736600000000003","61.15370000000006","13.0","1.0","1.0","1.0","10.0","80.0","0.0","0.0","0.0","0.0","12.03","84.30347646980029","2.7581498184332935","71.19366193720087"
"B-832","triethylene glycol butyl ether","InChI=1S/C10H22O4/c1-2-3-5-12-7-9-14-10-8-13-6-4-11/h11H,2-10H2,1H3","COBPKKZHLDDMTB-UHFFFAOYSA-N","CCCCOCCOCCOCCO","0.6855","0.0","1","G1","206.28199999999995","0.8286","54.450800000000044","14.0","4.0","1.0","4.0","11.0","86.0","0.0","0.0","0.0","0.0","47.92","86.15859949811568","2.7847655305545773","86.12278797724058"
"B-833","kepone","InChI=1S/C10Cl10O/c11-2-1(21)3(12)6(15)4(2,13)8(17)5(2,14)7(3,16)9(6,18)10(8,19)20","LHHGDZSESBACKH-UHFFFAOYSA-N","ClC1(Cl)C2(Cl)C3(Cl)C4(Cl)C(=O)C5(Cl)C3(Cl)C1(Cl)C5(Cl)C24Cl","-5.2594","0.0","1","G1","490.63900000000024","4.6182","88.11599999999999","21.0","1.0","0.0","11.0","0.0","116.0","0.0","6.0","6.0","6.0","17.07","168.18875865861338","2.0846484126260205","630.626975453629"
"B-834","butabarbital sodium","InChI=1S/C10H16N2O3.Na/c1-4-6(3)10(5-2)7(13)11-9(15)12-8(10)14;/h6H,4-5H2,1-3H3,(H2,11,12,13,14,15);/q;+1/p-1","QORQZMBCPRBCAB-UHFFFAOYSA-M","[Na+].CCC(C)C1(CC)C(=O)NC(=O)[N-]C1=O","0.1528","0.0","1","G1","234.231","-1.4169999999999996","54.08370000000002","16.0","3.0","1.0","6.0","3.0","84.0","0.0","1.0","1.0","1.0","77.34","117.01558919392915","2.2499991566253275e-06","297.1860027929492"
"B-835","1,3-dioxolane-4,4-diacetic acid, 5-oxo-","InChI=1S/C7H8O7/c8-4(9)1-7(2-5(10)11)6(12)13-3-14-7/h1-3H2,(H,8,9)(H,10,11)","PXPMCAKTYKAROX-UHFFFAOYSA-N","OC(=O)CC1(CC(O)=O)OCOC1=O","-0.611","0.009500000000000008","2","G3","204.13399999999996","-0.7944999999999998","39.280600000000014","14.0","5.0","2.0","7.0","4.0","78.0","0.0","1.0","1.0","1.0","110.13","78.22319682421706","2.8308892123975444","265.7628977173992"
"B-837","dsma","InChI=1S/CH5AsO3.2Na/c1-2(3,4)5;;/h1H3,(H2,3,4,5);;/q;2*+1/p-2","SDIXRDNYIMOKSG-UHFFFAOYSA-L","[Na+].[Na+].C[As]([O-])([O-])=O","0.3711","0.0","1","G1","183.934","-8.285800000000002","12.3045","7.0","3.0","0.0","6.0","0.0","32.0","0.0","0.0","0.0","0.0","63.19","89.45085105031028","-7.999999807500004e-08","59.070496343496615"
"B-838","fluoroacetic acid","InChI=1S/C2H3FO2/c3-1-2(4)5/h1H2,(H,4,5)","QEWYKACRFQMRMB-UHFFFAOYSA-N","OC(=O)CF","1.1077","0.0","1","G1","78.042","0.040500000000000036","13.610800000000001","5.0","1.0","1.0","3.0","1.0","30.0","0.0","0.0","0.0","0.0","37.3","28.225484397392172","2.8473789230876716","42.91260938324327"
"B-841","dl-allothreonine","InChI=1S/C4H9NO3/c1-2(6)3(5)4(7)8/h2-3,6H,5H2,1H3,(H,7,8)","AYFVYJQAPQTCCC-UHFFFAOYSA-N","CC(O)C(N)C(O)=O","0.067","0.14452915321725832","4","G5","119.11999999999999","-1.2208999999999997","27.291999999999994","8.0","3.0","3.0","4.0","2.0","48.0","0.0","0.0","0.0","0.0","83.55000000000001","46.92395767246788","3.6376825478398387","91.28421251514428"
"B-842","d-tartaric acid","InChI=1S/C4H6O6/c5-1(3(7)8)2(6)4(9)10/h1-2,5-6H,(H,7,8)(H,9,10)/t1-,2-/m0/s1","FEWJPZIEWOKRBE-LWMBPPNESA-N","O[C@@H]([C@H](O)C(O)=O)C(O)=O","0.8236","0.0","1","G1","150.08599999999998","-2.1226","27.285199999999996","10.0","4.0","4.0","6.0","3.0","58.0","0.0","0.0","0.0","0.0","115.06","55.33405657989094","4.069511908932011","133.82680599646994"
"B-845","benzamide, 2-methyl-3,5-dinitro-","InChI=1S/C8H7N3O5/c1-4-6(8(9)12)2-5(10(13)14)3-7(4)11(15)16/h2-3H,1H3,(H2,9,12)","ZEFNOZRLAWVAQF-UHFFFAOYSA-N","Cc1c(cc(cc1[N+]([O-])=O)[N+]([O-])=O)C(N)=O","-2.3525","0.0","1","G1","225.15999999999997","0.9103200000000002","53.005700000000004","16.0","5.0","1.0","8.0","3.0","84.0","1.0","0.0","0.0","1.0","129.37","88.96865159034628","3.5727545380551327","461.442304071642"
"B-846","flumethazide","InChI=1S/C8H6F3N3O4S2/c9-8(10,11)4-1-5-7(2-6(4)19(12,15)16)20(17,18)14-3-13-5/h1-3H,(H,13,14)(H2,12,15,16)","RGUQWGXAYZNLMI-UHFFFAOYSA-N","N[S](=O)(=O)c1cc2c(NC=N[S]2(=O)=O)cc1C(F)(F)F","-0.8186","0.0","1","G1","329.281","0.49530000000000046","62.11769999999999","20.0","5.0","2.0","12.0","1.0","110.0","1.0","0.0","1.0","2.0","118.69","110.9586895548507","2.890827149181857","812.1042317345174"
"B-847","thiabendazole","InChI=1S/C10H7N3S/c1-2-4-8-7(3-1)12-10(13-8)9-5-14-6-11-9/h1-6H,(H,12,13)","WJCNZQLZVWNLKY-UHFFFAOYSA-N","[nH]1c2ccccc2nc1c3cscn3","-3.6048","1.1524","2","G2","201.25400000000002","2.686400000000001","57.20170000000002","14.0","3.0","1.0","4.0","1.0","68.0","3.0","0.0","0.0","3.0","41.57","84.458981510615","2.2440947752499047","520.5285963600785"
"B-848","2,4-des","InChI=1S/C8H8Cl2O5S/c9-6-1-2-8(7(10)5-6)14-3-4-15-16(11,12)13/h1-2,5H,3-4H2,(H,11,12,13)","HJEINPVZRDJRBY-UHFFFAOYSA-N","O[S](=O)(=O)OCCOc1ccc(Cl)cc1Cl","-0.0601","0.0","1","G1","287.12","2.1916","59.45760000000002","16.0","4.0","1.0","8.0","5.0","90.0","1.0","0.0","0.0","1.0","72.83","102.83255014716592","2.434902784656965","459.49651615830777"
"B-849","3,4,5-trihydroxybenzoic acid","InChI=1S/C7H6O5/c8-4-1-3(7(11)12)2-5(9)6(4)10/h1-2,8-10H,(H,11,12)","LNTHITQWFMADLM-UHFFFAOYSA-N","OC(=O)c1cc(O)c(O)c(O)c1","-1.1552","0.0","1","G1","170.11999999999998","0.5015999999999998","38.39570000000001","12.0","4.0","4.0","5.0","1.0","64.0","1.0","0.0","0.0","1.0","97.99000000000001","67.13480234272139","3.306535412749064","307.56377472599723"
"B-850","dulcin","InChI=1S/C9H12N2O2/c1-2-13-8-5-3-7(4-6-8)11-9(10)12/h3-6H,2H2,1H3,(H3,10,11,12)","GGLIEWRLXDLBBF-UHFFFAOYSA-N","CCOc1ccc(NC(N)=O)cc1","-2.173","0.0","1","G1","180.20699999999997","1.5758999999999999","50.81710000000001","13.0","2.0","2.0","4.0","3.0","70.0","1.0","0.0","0.0","1.0","64.35","76.6910496728582","2.635972640607562","282.1711052507959"
"B-851","sodium succinate","InChI=1S/C4H6O4.2Na/c5-3(6)1-2-4(7)8;;/h1-2H2,(H,5,6)(H,7,8);;/q;2*+1/p-2","ZDQYSKICYIVCPN-UHFFFAOYSA-L","[Na+].[Na+].[O-]C(=O)CCC([O-])=O","0.0914","0.25257645802454576","4","G5","162.052","-8.725600000000002","19.247999999999994","10.0","4.0","0.0","6.0","3.0","46.0","0.0","0.0","0.0","0.0","80.25999999999999","102.57238832092287","-2.449999807500016e-07","99.82521876648654"
"B-852","potassium cyanide","InChI=1S/CN.K/c1-2;/q-1;+1","NNFCIKHAZHQZJG-UHFFFAOYSA-N","[K+].[C-]#N","1.0436","0.0","1","G1","65.116","-2.8996299999999997","4.968","3.0","1.0","0.0","2.0","0.0","10.0","0.0","0.0","0.0","0.0","23.79","62.05439540466084","0.0","9.509775004326936"
"B-854","octamethylpyrophosphoramide","InChI=1S/C8H24N4O3P2/c1-9(2)16(13,10(3)4)15-17(14,11(5)6)12(7)8/h1-8H3","SZKKRCSOSQAJDE-UHFFFAOYSA-N","CN(C)[P](=O)(O[P](=O)(N(C)C)N(C)C)N(C)C","0.5433","0.0","1","G1","286.25300000000004","1.4655999999999998","71.04600000000005","17.0","3.0","0.0","9.0","6.0","104.0","0.0","0.0","0.0","0.0","56.330000000000005","104.42410355839948","5.391868472314589","287.66199267675023"
"B-855","vicine","InChI=1S/C10H16N4O7/c11-7-6(8(19)14-10(12)13-7)21-9-5(18)4(17)3(16)2(1-15)20-9/h2-5,9,15-18H,1H2,(H5,11,12,13,14,19)/t2-,3-,4+,5-,9+/m1/s1","KGNGTSCIQCLKEH-SYCVNHKBSA-N","NC1=NC(=O)C(=C(N)N1)O[C@@H]2O[C@H](CO)[C@@H](O)[C@H](O)[C@H]2O","-1.4832","0.0","1","G1","304.259","-3.886999999999999","68.0777","21.0","10.0","7.0","11.0","3.0","118.0","1.0","1.0","1.0","2.0","197.16999999999996","117.2998495761074","2.2454098055453877","562.827459562259"
"B-856","1,3-bis(2-chloroet)-1-nitrosourea","InChI=1S/C5H9Cl2N3O2/c6-1-3-8-5(11)10(9-12)4-2-7/h1-4H2,(H,8,11)","DLGOEMSEDOSKAD-UHFFFAOYSA-N","ClCCNC(=O)N(CCCl)N=O","-1.7285","0.0","1","G1","214.05199999999996","1.157","47.33970000000001","12.0","3.0","1.0","7.0","5.0","70.0","0.0","0.0","0.0","0.0","61.77","79.94163789749997","3.76615173955013","155.62875863456514"
"B-858","1,6-dioxaspiro[4,4]nonane","InChI=1S/C7H12O2/c1-3-7(8-5-1)4-2-6-9-7/h1-6H2","YVSCOIUNVKGTND-UHFFFAOYSA-N","C1COC2(C1)CCCO2","-0.1078","0.0","1","G1","128.171","1.3035","33.10299999999999","9.0","2.0","0.0","2.0","0.0","52.0","0.0","2.0","2.0","2.0","18.46","55.1443318661645","2.04093977448264","81.97400337186356"
"B-861","indeno(1,2,3-cd)pyrene","InChI=1S/C22H12/c1-2-7-17-16(6-1)18-11-10-14-9-8-13-4-3-5-15-12-19(17)22(18)21(14)20(13)15/h1-12H","SXQBHARYMNFBPS-UHFFFAOYSA-N","c1ccc2c(c1)c3ccc4ccc5cccc6cc2c3c4c56","-9.1627","0.0","1","G1","276.338","6.2314000000000025","94.57600000000004","22.0","0.0","0.0","0.0","0.0","100.0","5.0","0.0","1.0","6.0","0.0","127.50668464737296","2.0282017866463833","1211.2161722814694"
"B-862","7h-dibenzo(c,g)carbazole","InChI=1S/C20H13N/c1-3-7-15-13(5-1)9-11-17-19(15)20-16-8-4-2-6-14(16)10-12-18(20)21-17/h1-12,21H","STJXCDGCXVZHDU-UHFFFAOYSA-N","[nH]1c2ccc3ccccc3c2c4c1ccc5ccccc45","-6.6277","0.0","1","G1","267.331","5.627500000000004","90.81670000000004","21.0","0.0","1.0","1.0","0.0","98.0","5.0","0.0","0.0","5.0","15.79","121.3672216674521","2.178301949101568","1041.9691570759294"
"B-863","benzo(c)phenanthrene","InChI=1S/C18H12/c1-3-7-16-13(5-1)9-11-15-12-10-14-6-2-4-8-17(14)18(15)16/h1-12H","TUAHORSUHVUKBD-UHFFFAOYSA-N","c1ccc2c(c1)ccc3ccc4ccccc4c23","-7.8207","0.0","1","G1","228.29399999999998","5.146200000000003","78.96000000000005","18.0","0.0","0.0","0.0","0.0","84.0","4.0","0.0","0.0","4.0","0.0","105.47639671470259","2.3809343150199185","801.7526221384024"
"B-864","benz(a,j)aceanthrylene","InChI=1S/C24H14/c1-2-8-17-15(6-1)12-13-21-22(17)14-16-7-5-11-19-18-9-3-4-10-20(18)24(21)23(16)19/h1-14H","ZUAGUFSITPHNKC-UHFFFAOYSA-N","c1ccc2c(c1)ccc3c2cc4cccc5c6ccccc6c3c45","-8.4806","0.0","1","G1","302.37600000000003","6.793600000000004","103.39000000000001","24.0","0.0","0.0","0.0","0.0","110.0","5.0","0.0","1.0","6.0","0.0","139.52765976723742","1.9505429539969086","1291.9954058134356"
"B-865","4,5-methylenephenanthrene","InChI=1S/C15H10/c1-3-10-7-8-11-4-2-6-13-9-12(5-1)14(10)15(11)13/h1-8H,9H2","RKZDZWJDQTZDLD-UHFFFAOYSA-N","C1c2cccc3ccc4cccc1c4c23","-5.2379","0.0","1","G1","190.24499999999998","3.8972000000000016","64.26000000000003","15.0","0.0","0.0","0.0","0.0","70.0","3.0","0.0","1.0","4.0","0.0","88.15384314383473","2.42195639158053","632.0421980027127"
"B-866","benzo(j)fluoranthene","InChI=1S/C20H12/c1-2-8-15-13(5-1)11-12-17-16-9-3-6-14-7-4-10-18(19(14)16)20(15)17/h1-12H","KHNYNFUTFKJLDD-UHFFFAOYSA-N","c1ccc2c(c1)ccc3c4cccc5cccc(c45)c23","-8.004","0.0","1","G1","252.31599999999997","5.640400000000003","85.88400000000004","20.0","0.0","0.0","0.0","0.0","92.0","4.0","0.0","1.0","5.0","0.0","116.84599523550219","2.0829764986101216","987.8657323868964"
"B-867","benzo(b)fluoranthene","InChI=1S/C20H12/c1-2-7-14-13(6-1)12-19-16-9-4-3-8-15(16)18-11-5-10-17(14)20(18)19/h1-12H","FTOVXSOBNPWTSH-UHFFFAOYSA-N","c1ccc2c(c1)cc3c4ccccc4c5cccc2c35","-8.2259","0.0","1","G1","252.31599999999997","5.640400000000003","85.88400000000003","20.0","0.0","0.0","0.0","0.0","92.0","4.0","0.0","1.0","5.0","0.0","116.84599523550219","2.120569654932486","993.1157323868965"
"B-868","benzo(k)fluoranthene","InChI=1S/C20H12/c1-2-6-15-12-19-17-10-4-8-13-7-3-9-16(20(13)17)18(19)11-14(15)5-1/h1-12H","HAXBIWFMXWRORI-UHFFFAOYSA-N","c1ccc2cc3c4cccc5cccc(c3cc2c1)c45","-8.4989","0.010549999999999393","2","G3","252.31599999999997","5.640400000000003","85.88400000000003","20.0","0.0","0.0","0.0","0.0","92.0","4.0","0.0","1.0","5.0","0.0","116.84599523550219","2.022617790879174","915.8657323868963"