"ID","Name","InChI","InChIKey","SMILES","Solubility","SD","Ocurrences","Group","MolWt","MolLogP","MolMR","HeavyAtomCount","NumHAcceptors","NumHDonors","NumHeteroatoms","NumRotatableBonds","NumValenceElectrons","NumAromaticRings","NumSaturatedRings","NumAliphaticRings","RingCount","TPSA","LabuteASA","BalabanJ","BertzCT"
"B-736","octanal","InChI=1S/C8H16O/c1-2-3-4-5-6-7-8-9/h8H,2-7H2,1H3","NUJGJRNETVAIRJ-UHFFFAOYSA-N","CCCCCCCC=O","-2.3598","0.0","1","G1","128.215","2.5458000000000007","39.440000000000005","9.0","1.0","0.0","1.0","6.0","54.0","0.0","0.0","0.0","0.0","17.07","57.45536792864957","2.663883887398184","59.58797503894244"
"B-737","diethylene glycol monobutyl ether acetate","InChI=1S/C10H20O4/c1-3-4-5-12-6-7-13-8-9-14-10(2)11/h3-9H2,1-2H3","VXQBJTKSVGFQOL-UHFFFAOYSA-N","CCCCOCCOCCOC(C)=O","-0.8188","0.15739194475","2","G3","204.26599999999996","1.3828","53.179000000000045","14.0","4.0","0.0","4.0","9.0","84.0","0.0","0.0","0.0","0.0","44.760000000000005","85.52588784596342","2.884064614706359","136.08368795993283"
"B-738","n-decane","InChI=1S/C10H22/c1-3-5-7-9-10-8-6-4-2/h3-10H2,1-2H3","DIOQZVSQGTUSAI-UHFFFAOYSA-N","CCCCCCCCCC","-6.4372","0.0","1","G1","142.286","4.147000000000004","48.28400000000003","10.0","0.0","0.0","0.0","7.0","62.0","0.0","0.0","0.0","0.0","0.0","66.02373005739904","2.6476048489438337","40.0"
"B-740","n-dodecylamine","InChI=1S/C12H27N/c1-2-3-4-5-6-7-8-9-10-11-12-13/h2-13H2,1H3","JRBPAEWTRLWTQC-UHFFFAOYSA-N","CCCCCCCCCCCCN","-3.3759","0.8168099592599711","6","G4","185.35499999999996","3.8660000000000023","60.89840000000005","13.0","1.0","1.0","1.0","10.0","80.0","0.0","0.0","0.0","0.0","26.02","84.09350498320498","2.7581498184332935","71.19366193720087"
"B-742","methane arsonate","InChI=1S/CH5AsO3/c1-2(3,4)5/h1H3,(H2,3,4,5)","QYPPRTNMGCREIM-UHFFFAOYSA-N","C[As](O)(O)=O","0.2622","0.0","1","G1","139.96999999999997","-1.0298","16.7421","5.0","1.0","2.0","4.0","0.0","32.0","0.0","0.0","0.0","0.0","57.53","32.62405180488636","3.472066495600119","53.028652363530185"
"B-743","tetrakis(hydroxymethyl)phosphonium chloride","InChI=1S/C4H12O4P.ClH/c5-1-9(2-6,3-7)4-8;/h5-8H,1-4H2;1H/q+1;/p-1","AKXUUJCMWZFYMV-UHFFFAOYSA-M","[Cl-].OC[P+](CO)(CO)CO","0.322","0.0","1","G1","190.563","-4.1927999999999965","35.26319999999999","10.0","4.0","4.0","6.0","4.0","64.0","0.0","0.0","0.0","0.0","80.92","66.24868609272194","0.0","60.14806784229394"
"B-744","2-amino-2-methyl-1-propanol","InChI=1S/C4H11NO/c1-4(2,5)3-6/h6H,3,5H2,1-2H3","CBTVGIZVANVGBH-UHFFFAOYSA-N","CC(C)(N)CO","1.0499","0.0","1","G1","89.13799999999999","-0.2840000000000001","25.352199999999996","6.0","2.0","2.0","2.0","1.0","38.0","0.0","0.0","0.0","0.0","46.25","37.9682018202281","3.1684898726705697","37.30296890880646"
"B-745","1,2-dibromotetrafluoroethane","InChI=1S/C2Br2F4/c3-1(5,6)2(4,7)8","KVBKAPANDHPRDG-UHFFFAOYSA-N","FC(F)(Br)C(F)(F)Br","-4.9376","0.0","1","G1","259.822","2.9618","27.747999999999998","8.0","0.0","0.0","6.0","1.0","50.0","0.0","0.0","0.0","0.0","0.0","59.501429965213816","4.020391543176799","67.01955000865388"
"B-746","camphoric acid","InChI=1S/C10H16O4/c1-9(2)6(7(11)12)4-5-10(9,3)8(13)14/h6H,4-5H2,1-3H3,(H,11,12)(H,13,14)/p-2/t6-,10+/m1/s1","LSPHULWDVZXLIL-LDWIPMOCSA-L","CC1(C)[C@H](CC[C@@]1(C)C([O-])=O)C([O-])=O","-1.4207","0.0","1","G1","198.218","-1.071299999999999","44.62600000000002","14.0","4.0","0.0","4.0","2.0","80.0","0.0","1.0","1.0","1.0","80.25999999999999","82.92941060834937","3.0816750060746867","281.846585677332"
"B-749","sucrose octaacetate","InChI=1S/C28H38O19/c1-12(29)37-9-20-22(40-15(4)32)24(42-17(6)34)25(43-18(7)35)27(45-20)47-28(11-39-14(3)31)26(44-19(8)36)23(41-16(5)33)21(46-28)10-38-13(2)30/h20-27H,9-11H2,1-8H3/t20-,21-,22-,23-,24+,25-,26+,27-,28+/m1/s1","ZIJKGAXBCRWEOL-SAXBRCJISA-N","CC(=O)OC[C@H]1O[C@H](O[C@]2(COC(C)=O)O[C@H](COC(C)=O)[C@@H](OC(C)=O)[C@@H]2OC(C)=O)[C@H](OC(C)=O)[C@@H](OC(C)=O)[C@@H]1OC(C)=O","-2.8726","0.0","1","G1","678.5930000000003","-0.8291999999999908","145.01899999999983","47.0","19.0","0.0","19.0","13.0","264.0","0.0","2.0","2.0","2.0","238.08999999999995","268.1222001344054","2.7831467412322763","1214.084515370298"
"B-750","cyclohexanol, 1-ethynyl-, carbamate","InChI=1S/C9H13NO2/c1-2-9(12-8(10)11)6-4-3-5-7-9/h1H,3-7H2,(H2,10,11)","GXRZIMHKGDIBEW-UHFFFAOYSA-N","NC(=O)OC1(CCCCC1)C#C","-1.8253","0.0","1","G1","167.208","1.4178","45.31740000000002","12.0","2.0","1.0","3.0","1.0","66.0","0.0","1.0","1.0","1.0","52.32000000000001","72.26714020789582","2.6146255050426754","211.0586500259616"
"B-751","dipentaerythritol","InChI=1S/C10H22O7/c11-1-9(2-12,3-13)7-17-8-10(4-14,5-15)6-16/h11-16H,1-8H2","TXBCBTDQIULDIA-UHFFFAOYSA-N","OCC(CO)(CO)COCC(CO)(CO)CO","-1.9582","0.033449626550000056","2","G3","254.27899999999994","-3.070399999999999","58.199800000000046","17.0","7.0","6.0","7.0","10.0","104.0","0.0","0.0","0.0","0.0","130.61","99.90267780008197","4.276302630183746","152.56410964170607"
"B-752","tris(2,3-dibromopropyl) phosphate","InChI=1S/C9H15Br6O4P/c10-1-7(13)4-17-20(16,18-5-8(14)2-11)19-6-9(15)3-12/h7-9H,1-6H2","PQYJRMFWJJONBO-UHFFFAOYSA-N","BrCC(Br)CO[P](=O)(OCC(Br)CBr)OCC(Br)CBr","-4.9405","0.0","1","G1","697.613","5.619500000000003","104.98950000000004","20.0","4.0","0.0","11.0","12.0","122.0","0.0","0.0","0.0","0.0","44.760000000000005","169.75431993984628","4.4484182258014355","254.8173499961941"
"B-753","demeton-s","InChI=1S/C8H19O3PS2/c1-4-10-12(9,11-5-2)14-8-7-13-6-3/h4-8H2,1-3H3","GRPRVIYRYGLIJU-UHFFFAOYSA-N","CCO[P](=O)(OCC)SCCSCC","-2.1112","0.0","1","G1","258.34499999999997","3.653800000000002","66.31550000000004","14.0","5.0","0.0","6.0","9.0","86.0","0.0","0.0","0.0","0.0","35.53","94.97868137781639","3.7767972529836142","167.96932691749925"
"B-754","5,5-dimethyl-1,3-cyclohexanedione","InChI=1S/C8H12O2/c1-8(2)4-6(9)3-7(10)5-8/h3-5H2,1-2H3","BADXJIPKFRBFOT-UHFFFAOYSA-N","CC1(C)CC(=O)CC(=O)C1","-1.5276","0.0","1","G1","140.182","1.3347","37.646","10.0","2.0","0.0","2.0","0.0","56.0","0.0","1.0","1.0","1.0","34.14","60.611058875164105","2.68468675394851","161.69661270558157"
"B-755","oxanamide","InChI=1S/C8H15NO2/c1-3-5-6-8(4-2,11-6)7(9)10/h6H,3-5H2,1-2H3,(H2,9,10)","WBLPIVIXQOFTPQ-UHFFFAOYSA-N","CCCC1OC1(CC)C(N)=O","-1.1745","0.0","1","G1","157.21299999999997","0.8193999999999999","41.9974","11.0","2.0","1.0","3.0","4.0","64.0","0.0","1.0","1.0","1.0","55.62","66.90297270163992","2.494019373924044","169.47499331586653"
"B-756","hydroxyurea","InChI=1S/CH4N2O2/c2-1(4)3-5/h5H,(H3,2,3,4)","VSNHCAURESNICA-UHFFFAOYSA-N","NC(=O)NO","1.1189","0.0","1","G1","76.05499999999999","-0.9561000000000002","14.5056","5.0","2.0","3.0","4.0","0.0","30.0","0.0","0.0","0.0","0.0","75.35000000000001","28.538798260168065","2.8473789230876716","42.91260938324327"
"B-757","pyruvic acid","InChI=1S/C3H4O3/c1-2(4)3(5)6/h1H3,(H,5,6)","LCTONWCANYUPML-UHFFFAOYSA-N","CC(=O)C(O)=O","1.0552","0.0","1","G1","88.06199999999998","-0.3399999999999999","18.3168","6.0","2.0","1.0","3.0","1.0","34.0","0.0","0.0","0.0","0.0","54.37","34.58641320890631","3.5677034550432034","72.03910001730776"
"B-759","trimethadione","InChI=1S/C6H9NO3/c1-6(2)4(8)7(3)5(9)10-6/h1-3H3","IRYJRGCIQBGHIV-UHFFFAOYSA-N","CN1C(=O)OC(C)(C)C1=O","-0.4568","0.0","1","G1","143.142","0.37359999999999993","33.32999999999999","10.0","3.0","0.0","4.0","0.0","56.0","0.0","1.0","1.0","1.0","46.61","58.75455354608113","2.920820853904207","197.1696096624243"
"B-760","benzamide, n- (4-aminophenyl)sulfonyl -","InChI=1S/C13H12N2O3S/c14-11-6-8-12(9-7-11)19(17,18)15-13(16)10-4-2-1-3-5-10/h1-9H,14H2,(H,15,16)","PBCZLFBEBARBBI-UHFFFAOYSA-N","Nc1ccc(cc1)[S](=O)(=O)NC(=O)c2ccccc2","-2.9501","0.0","1","G1","276.317","1.3875","71.94840000000002","19.0","4.0","2.0","6.0","3.0","98.0","2.0","0.0","0.0","2.0","89.25999999999999","110.66549031303724","2.2268919853722347","679.5880857015135"
"B-762","silver lactate","InChI=1S/C3H5O3.Ag/c1-2(4)3(5)6;/h2H,1H3,(H,5,6);/q-1;+1","CUPCAVOUAWGFEI-UHFFFAOYSA-N","[Ag+].CC([O-])C(O)=O","-0.4702","0.0","1","G1","196.938","-1.1827","17.097800000000003","7.0","2.0","1.0","4.0","1.0","46.0","0.0","0.0","0.0","0.0","60.36","56.85252771435221","0.0","61.20035947603792"
"B-763","2,5-pyrrolidinedione, 1-bromo-","InChI=1S/C4H4BrNO2/c5-6-3(7)1-2-4(6)8/h1-2H2","PCLIMKBDDGJMGD-UHFFFAOYSA-N","BrN1C(=O)CCC1=O","-1.0831","0.0","1","G1","177.98499999999996","0.44530000000000003","30.013999999999996","8.0","2.0","0.0","4.0","0.0","44.0","0.0","1.0","1.0","1.0","37.38","54.988814491065135","2.7003421243315966","128.97373660251156"
"B-764","1-chloro-2,5-pyrrolidinedione","InChI=1S/C4H4ClNO2/c5-6-3(7)1-2-4(6)8/h1-2H2","JRNVZBWKYDBUCA-UHFFFAOYSA-N","ClN1C(=O)CCC1=O","-0.9702","0.0","1","G1","133.534","0.2892","26.93999999999999","8.0","2.0","0.0","4.0","0.0","44.0","0.0","1.0","1.0","1.0","37.38","51.32606114721573","2.7003421243315966","128.97373660251156"
"B-765","ursodeoxycholic acid","InChI=1S/C24H40O4/c1-14(4-7-21(27)28)17-5-6-18-22-19(9-11-24(17,18)3)23(2)10-8-16(25)12-15(23)13-20(22)26/h14-20,22,25-26H,4-13H2,1-3H3,(H,27,28)/t14-,15+,16-,17-,18+,19+,20+,22+,23+,24-/m1/s1","RUDATBOHQWOJDD-UZVSRGJWSA-N","C[C@H](CCC(O)=O)[C@H]1CC[C@H]2[C@@H]3[C@@H](O)C[C@@H]4C[C@H](O)CC[C@]4(C)[C@H]3CC[C@]12C","-4.2929","0.0","1","G1","392.5800000000002","4.477900000000004","108.64740000000008","28.0","3.0","3.0","4.0","4.0","160.0","0.0","4.0","4.0","4.0","77.76","169.65381840146642","1.5548220176091474","605.412568486979"
"B-768","noscapine","InChI=1S/C22H23NO7/c1-23-8-7-11-9-14-20(29-10-28-14)21(27-4)15(11)17(23)18-12-5-6-13(25-2)19(26-3)16(12)22(24)30-18/h5-6,9,17-18H,7-8,10H2,1-4H3/t17-,18+/m1/s1","AKNNEGZIBPJZJG-MSOLQXFVSA-N","COc1ccc2[C@H](OC(=O)c2c1OC)[C@@H]3N(C)CCc4cc5OCOc5c(OC)c34","-3.1393","0.0","1","G1","413.4260000000003","2.881800000000001","105.89450000000005","30.0","8.0","0.0","8.0","4.0","158.0","2.0","0.0","3.0","5.0","75.69000000000001","173.72305215622788","1.6852290238580119","1034.8766093427325"
"B-769","1-hydroxyanthraquinone","InChI=1S/C14H8O3/c15-11-7-3-6-10-12(11)14(17)9-5-2-1-4-8(9)13(10)16/h1-7,15H","BTLXPCBPYBNQNR-UHFFFAOYSA-N","Oc1cccc2C(=O)c3ccccc3C(=O)c12","-4.4213","0.0","1","G1","224.215","2.1676","61.413800000000016","17.0","3.0","1.0","3.0","0.0","82.0","2.0","0.0","1.0","3.0","54.37","97.32982835310852","2.374093930060625","656.2669402785393"
"B-770","2,4,6-trinitrobenzoic acid","InChI=1S/C7H3N3O8/c11-7(12)6-4(9(15)16)1-3(8(13)14)2-5(6)10(17)18/h1-2H,(H,11,12)","KAQBNBSMMVTKRN-UHFFFAOYSA-N","OC(=O)c1c(cc(cc1[N+]([O-])=O)[N+]([O-])=O)[N+]([O-])=O","-1.0977","0.0","1","G1","257.114","1.1094000000000002","53.364499999999985","18.0","7.0","1.0","11.0","4.0","94.0","1.0","0.0","0.0","1.0","166.72","96.71102825363273","3.7641788837453345","545.0484750158275"
"B-771","8-quinolinol,5-chloro-","InChI=1S/C9H6ClNO/c10-7-3-4-8(12)9-6(7)2-1-5-11-9/h1-5,12H","CTQMJYWDVABFRZ-UHFFFAOYSA-N","Oc1ccc(Cl)c2cccnc12","-3.9756","0.0","1","G1","179.60600000000002","2.5938000000000008","48.41780000000001","12.0","2.0","1.0","3.0","0.0","60.0","2.0","0.0","0.0","2.0","33.120000000000005","74.43021561125636","2.946471324842402","387.2980911891212"
"B-772","2-cyclohexyl-4,6-dinitrophenol","InChI=1S/C12H14N2O5/c15-12-10(8-4-2-1-3-5-8)6-9(13(16)17)7-11(12)14(18)19/h6-8,15H,1-5H2","QJYHUJAGJUHXJN-UHFFFAOYSA-N","Oc1c(cc(cc1[N+]([O-])=O)[N+]([O-])=O)C2CCCCC2","-4.2492","0.0","1","G1","266.253","3.256300000000002","67.24160000000003","19.0","5.0","1.0","7.0","3.0","102.0","1.0","1.0","1.0","2.0","106.50999999999999","108.71540984954301","2.507758804021516","523.0961821950036"
"B-773","2-phenylcinchoninic acid","InChI=1S/C16H11NO2/c18-16(19)13-10-15(11-6-2-1-3-7-11)17-14-9-5-4-8-12(13)14/h1-10H,(H,18,19)","YTRMTPPVNRALON-UHFFFAOYSA-N","OC(=O)c1cc(nc2ccccc12)c3ccccc3","-3.1926","0.0","1","G1","249.26900000000003","3.6000000000000014","74.13830000000003","19.0","2.0","1.0","3.0","2.0","92.0","3.0","0.0","0.0","3.0","50.19","109.71050780487911","2.309670859666423","751.0486079861878"
"B-774","npa (naptalam)","InChI=1S/C18H13NO3/c20-17(14-9-3-4-10-15(14)18(21)22)19-16-11-5-7-12-6-1-2-8-13(12)16/h1-11H,(H,19,20)(H,21,22)","JXTHEWSKYLZVJC-UHFFFAOYSA-N","OC(=O)c1ccccc1C(=O)Nc2cccc3ccccc23","-3.1633","0.0","1","G1","291.30600000000004","3.790300000000002","85.30250000000004","22.0","2.0","2.0","4.0","3.0","108.0","3.0","0.0","0.0","3.0","66.39999999999999","126.56718622198102","1.9924860950657606","865.5950842823037"
"B-775","naphthalene-1,3-diol","InChI=1S/C10H8O2/c11-8-5-7-3-1-2-4-9(7)10(12)6-8/h1-6,11-12H","XOOMNEFVDUTJPP-UHFFFAOYSA-N","Oc1cc(O)c2ccccc2c1","-1.9493","0.0","1","G1","160.17199999999997","2.2509999999999994","47.27760000000003","12.0","2.0","2.0","2.0","0.0","60.0","2.0","0.0","0.0","2.0","40.46","69.7015351556242","2.8920650451735157","421.10813525322834"
"B-776","captan","InChI=1S/C9H8Cl3NO2S/c10-9(11,12)16-13-7(14)5-3-1-2-4-6(5)8(13)15/h1-2,5-6H,3-4H2","LDVVMCZRFWMZSG-UHFFFAOYSA-N","ClC(Cl)(Cl)SN1C(=O)C2CC=CCC2C1=O","-4.7704","0.0","1","G1","300.5940000000001","2.913500000000001","65.08800000000001","16.0","3.0","0.0","7.0","1.0","88.0","0.0","1.0","2.0","2.0","37.38","112.20868669068936","2.179857528512065","340.2558236666764"
"B-777","folpet","InChI=1S/C9H4Cl3NO2S/c10-9(11,12)16-13-7(14)5-3-1-2-4-6(5)8(13)15/h1-4H","HKIOYBQGHSTUDB-UHFFFAOYSA-N","ClC(Cl)(Cl)SN1C(=O)c2ccccc2C1=O","-5.569","0.0","1","G1","296.56200000000007","3.2585000000000015","64.82300000000001","16.0","3.0","0.0","7.0","1.0","84.0","1.0","0.0","1.0","2.0","37.38","110.77156239608725","2.356719300888469","437.06705661543674"
"B-778","3-indolebutyric acid","InChI=1S/C12H13NO2/c14-12(15)7-3-4-9-8-13-11-6-2-1-5-10(9)11/h1-2,5-6,8,13H,3-4,7H2,(H,14,15)","JTEDVYBZBROSJT-UHFFFAOYSA-N","OC(=O)CCCc1c[nH]c2ccccc12","-2.9101","0.0","1","G1","203.241","2.5752000000000006","58.872500000000024","15.0","1.0","2.0","3.0","4.0","78.0","2.0","0.0","0.0","2.0","53.089999999999996","87.73775238207269","2.1105774136828446","473.1817844230892"
"B-780","phenol, 2,4-dichloro-3,5-dimethyl-","InChI=1S/C8H8Cl2O/c1-4-3-6(11)8(10)5(2)7(4)9/h3,11H,1-2H3","IYOLBFFHPZOQGW-UHFFFAOYSA-N","Cc1cc(O)c(Cl)c(C)c1Cl","-2.9801","0.0","1","G1","191.057","3.3158400000000015","47.60080000000002","11.0","1.0","1.0","3.0","0.0","60.0","1.0","0.0","0.0","1.0","20.23","75.56205355424953","3.4555464838177836","268.3837992264624"
"B-781","3,5-diiodosalicylic acid","InChI=1S/C7H4I2O3/c8-3-1-4(7(11)12)6(10)5(9)2-3/h1-2,10H,(H,11,12)","DHZVWQPHNWDCFS-UHFFFAOYSA-N","OC(=O)c1cc(I)cc(I)c1O","-3.307","0.0","1","G1","389.914","2.2996000000000003","60.5001","12.0","2.0","2.0","5.0","1.0","64.0","1.0","0.0","0.0","1.0","57.53","96.07001108041665","3.3738590108748685","335.66852769827057"
"B-783","benzoic acid, 2-(acetyloxy)-, phenyl ester","InChI=1S/C15H12O4/c1-11(16)18-14-10-6-5-9-13(14)15(17)19-12-7-3-2-4-8-12/h2-10H,1H3","PSBAIJVSCTZDDB-UHFFFAOYSA-N","CC(=O)Oc1ccccc1C(=O)Oc2ccccc2","-4.1077","0.0","1","G1","256.25699999999995","2.831100000000001","69.15150000000004","19.0","4.0","0.0","4.0","3.0","96.0","2.0","0.0","0.0","2.0","52.60000000000001","110.13345832785211","2.214823158107694","590.1043864233072"
"B-785","4-amino-4'-chlorodiphenyl","InChI=1S/C12H10ClN/c13-11-5-1-9(2-6-11)10-3-7-12(14)8-4-10/h1-8H,14H2","OREQWMWYRYXCDF-UHFFFAOYSA-N","Nc1ccc(cc1)c2ccc(Cl)cc2","-4.6383","0.0","1","G1","203.672","3.5892000000000017","61.30040000000002","14.0","1.0","1.0","2.0","1.0","70.0","2.0","0.0","0.0","2.0","26.02","88.13165424945538","2.396509039726096","373.5796467381504"
"B-786","1,3-diphenyl-1-triazene","InChI=1S/C12H11N3/c1-3-7-11(8-4-1)13-15-14-12-9-5-2-6-10-12/h1-10H,(H,13,14)","ALIFPGGMJDWMJH-UHFFFAOYSA-N","N(N=Nc1ccccc1)c2ccccc2","-2.596","0.0","1","G1","197.24099999999999","3.7974000000000023","61.022700000000036","15.0","2.0","1.0","3.0","3.0","74.0","2.0","0.0","0.0","2.0","36.75","88.4552733738931","1.968643821266043","423.1349242656352"
"B-787","benzenamine, 2-ethoxy-5-nitro-","InChI=1S/C8H10N2O3/c1-2-13-8-4-3-6(10(11)12)5-7(8)9/h3-5H,2,9H2,1H3","AMMPGYPPRLWMLW-UHFFFAOYSA-N","CCOc1ccc(cc1N)[N+]([O-])=O","-3.2113","0.0","1","G1","182.17899999999995","1.5756999999999999","48.67780000000001","13.0","4.0","1.0","5.0","3.0","70.0","1.0","0.0","0.0","1.0","78.38999999999999","75.26769899730957","2.9807441303986697","325.1652197817895"
"B-788","2,4,5-trimethylaniline","InChI=1S/C9H13N/c1-6-4-8(3)9(10)5-7(6)2/h4-5H,10H2,1-3H3","BMIPMKQAAJKBKP-UHFFFAOYSA-N","Cc1cc(C)c(N)cc1C","-1.9549","0.0","1","G1","135.21","2.1940600000000003","45.06540000000002","10.0","1.0","1.0","1.0","0.0","54.0","1.0","0.0","0.0","1.0","26.02","61.866120159699506","3.2824629074535228","200.900333363576"
"B-791","glutamic acid hydrochloride","InChI=1S/C5H9NO4.ClH/c6-3(5(9)10)1-2-4(7)8;/h3H,1-2,6H2,(H,7,8)(H,9,10);1H","RPAJSBKBKSSMLJ-UHFFFAOYSA-N","[H+].[Cl-].NC(CCC(O)=O)C(O)=O","0.3159","0.0","1","G1","183.59099999999998","-3.6203999999999974","33.592999999999996","11.0","3.0","3.0","6.0","4.0","66.0","0.0","0.0","0.0","0.0","100.62","71.0883135089532","-4.0499995185000584e-07","154.38364613672863"
"B-792","butyl lactate","InChI=1S/C7H14O3/c1-3-4-5-10-7(9)6(2)8/h6,8H,3-5H2,1-2H3","MRABAEUHTLLEML-UHFFFAOYSA-N","CCCCOC(=O)C(C)O","-0.5629","0.0","1","G1","146.18599999999998","0.7104999999999999","37.547799999999995","10.0","3.0","1.0","3.0","4.0","60.0","0.0","0.0","0.0","0.0","46.53","60.99820479595584","3.222476034247819","99.02434166397533"
"B-793","benzenesulfonic acid, 3-hydrazino-","InChI=1S/C6H8N2O3S/c7-8-5-2-1-3-6(4-5)12(9,10)11/h1-4,8H,7H2,(H,9,10,11)","ZDGHHRPKFCVOJL-UHFFFAOYSA-N","NNc1cccc(c1)[S](O)(=O)=O","-0.8275","0.0","1","G1","188.20799999999997","0.21890000000000004","44.066700000000004","12.0","4.0","3.0","6.0","2.0","66.0","1.0","0.0","0.0","1.0","92.41999999999999","69.91992803039331","3.1985659922950855","374.1345171707861"
"B-794","benzenesulfonamide, 4-(aminomethyl)-","InChI=1S/C7H10N2O2S/c8-5-6-1-3-7(4-2-6)12(9,10)11/h1-4H,5,8H2,(H2,9,10,11)","TYMRLRRVMHJFTF-UHFFFAOYSA-N","NCc1ccc(cc1)[S](N)(=O)=O","0.321","0.0","1","G1","186.23599999999996","-0.20729999999999993","45.70660000000001","12.0","3.0","2.0","5.0","2.0","66.0","1.0","0.0","0.0","1.0","86.18","71.23690252033408","3.090461034734354","355.4976952228733"
"B-795","salicin","InChI=1S/C13H18O7/c14-5-7-3-1-2-4-8(7)19-13-12(18)11(17)10(16)9(6-15)20-13/h1-4,9-18H,5-6H2/t9-,10-,11+,12-,13-/m1/s1","NGFMICBWJRZIBI-UJPOAAIJSA-N","OC[C@H]1O[C@@H](Oc2ccccc2CO)[C@H](O)[C@@H](O)[C@@H]1O","-0.8547","0.0","1","G1","286.28","-1.6424000000000003","66.76000000000003","20.0","7.0","5.0","7.0","4.0","112.0","1.0","1.0","1.0","2.0","119.61000000000001","115.17842598673782","2.1504764393251574","436.48277752692195"
"B-798","nitrilotriacetic acid","InChI=1S/C6H9NO6/c8-4(9)1-7(2-5(10)11)3-6(12)13/h1-3H2,(H,8,9)(H,10,11)(H,12,13)","MGFYIUFZLHCRTH-UHFFFAOYSA-N","OC(=O)CN(CC(O)=O)CC(O)=O","-0.5101","0.8286529786000001","2","G2","191.13899999999998","-1.4577999999999993","39.3474","13.0","4.0","3.0","7.0","6.0","74.0","0.0","0.0","0.0","0.0","115.14000000000001","73.19106282673529","4.095996370610992","187.12526634448807"
"B-799","3,4-dihydroxybenzaldehyde","InChI=1S/C7H6O3/c8-4-5-1-2-6(9)7(10)3-5/h1-4,9-10H","IBGBGRVKPALMCQ-UHFFFAOYSA-N","Oc1ccc(C=O)cc1O","-1.3402","0.45010000000000006","2","G3","138.12199999999999","0.9102999999999999","35.1591","10.0","3.0","2.0","3.0","1.0","52.0","1.0","0.0","0.0","1.0","57.53","57.54633483832936","3.158901732156222","255.02817392215357"
"B-800","2-thiophenepropanoic acid, .alpha.-amino-","InChI=1S/C7H9NO2S/c8-6(7(9)10)4-5-2-1-3-11-5/h1-3,6H,4,8H2,(H,9,10)","WTOFYLAWDLQMBZ-UHFFFAOYSA-N","NC(Cc1sccc1)C(O)=O","-0.8356","0.0","1","G1","171.22099999999998","0.7024999999999999","43.634200000000014","11.0","3.0","2.0","4.0","3.0","60.0","1.0","0.0","0.0","1.0","63.32","68.46223928235078","2.4987607772382447","232.59842954459157"