"ID","Name","InChI","InChIKey","SMILES","Solubility","SD","Ocurrences","Group","MolWt","MolLogP","MolMR","HeavyAtomCount","NumHAcceptors","NumHDonors","NumHeteroatoms","NumRotatableBonds","NumValenceElectrons","NumAromaticRings","NumSaturatedRings","NumAliphaticRings","RingCount","TPSA","LabuteASA","BalabanJ","BertzCT"
"B-1571","n,n-dimethylisopropylamine","InChI=1S/C5H13N/c1-5(2)6(3)4/h5H,1-4H3","VMOWKUTXPNPTEN-UHFFFAOYSA-N","CC(C)N(C)C","1.0597","0.0","1","G1","87.166","0.9564","28.822999999999983","6.0","1.0","0.0","1.0","1.0","38.0","0.0","0.0","0.0","0.0","3.24","39.95885315561935","2.9934972434784735","24.919684538543997"
"B-1572","acetic acid, (nitrooxy)-, ethyl ester","InChI=1S/C4H7NO5/c1-2-9-4(6)3-10-5(7)8/h2-3H2,1H3","PMCOPORTQICYLN-UHFFFAOYSA-N","CCOC(=O)CO[N+]([O-])=O","-1.7111","0.0","1","G1","149.102","-0.24219999999999975","29.579399999999993","10.0","5.0","0.0","6.0","4.0","58.0","0.0","0.0","0.0","0.0","78.66999999999999","56.82970415205467","3.3038725481541023","133.60964047443682"
"B-1573","glycine, n-(ethoxycarbonyl)-, ethyl ester","InChI=1S/C7H13NO4/c1-3-11-6(9)5-8-7(10)12-4-2/h3-5H2,1-2H3,(H,8,10)","ORKAHUKYJCNDDI-UHFFFAOYSA-N","CCOC(=O)CNC(=O)OCC","-0.2435","0.0","1","G1","175.18399999999997","0.2955999999999999","41.65770000000001","12.0","4.0","1.0","5.0","4.0","70.0","0.0","0.0","0.0","0.0","64.63","71.02890055691852","3.402570682630092","139.48536560617387"
"B-1574","2-hydroxypropyl acrylate","InChI=1S/C6H10O3/c1-3-6(8)9-4-5(2)7/h3,5,7H,1,4H2,2H3","GWZMWHWAWHPNHN-UHFFFAOYSA-N","CC(O)COC(=O)C=C","0.8856","0.0","1","G1","130.14299999999997","0.09640000000000004","32.83679999999999","9.0","3.0","1.0","3.0","3.0","52.0","0.0","0.0","0.0","0.0","46.53","53.943659649374986","3.2725014723788197","106.87060032410332"
"B-1575","hydroxymethyl urea","InChI=1S/C2H6N2O2/c3-2(6)4-1-5/h5H,1H2,(H3,3,4,6)","VGGLHLAESQEWCR-UHFFFAOYSA-N","NC(=O)NCO","-0.3463","0.0","1","G1","90.082","-1.3955000000000002","19.804899999999996","6.0","2.0","3.0","4.0","1.0","36.0","0.0","0.0","0.0","0.0","75.35000000000001","34.94970187508669","2.8312571099313644","53.50977500432694"
"B-1576","1-pentyl nitrate","InChI=1S/C5H11NO3/c1-2-3-4-5-9-6(7)8/h2-5H2,1H3","HSNWZBCBUUSSQD-UHFFFAOYSA-N","CCCCCO[N+]([O-])=O","-2.568","0.0","1","G1","133.147","1.3849","32.47139999999999","9.0","3.0","0.0","4.0","5.0","54.0","0.0","0.0","0.0","0.0","52.37","53.919578936900635","2.828868134909685","84.27229264640108"
"B-1577","2,5-dimethyltetrahydrofuran","InChI=1S/C6H12O/c1-5-3-4-6(2)7-5/h5-6H,3-4H2,1-2H3","OXMIDRBAFOEOQT-UHFFFAOYSA-N","CC1CCC(C)O1","0.0723","0.0","1","G1","100.16099999999999","1.5737999999999999","29.242999999999984","7.0","1.0","0.0","1.0","0.0","42.0","0.0","1.0","1.0","1.0","9.23","44.67167567579023","2.2571532373031413","53.20035947603792"
"B-1578","4-methyl-n-oxidepyridine","InChI=1S/C6H7NO/c1-6-2-4-7(8)5-3-6/h2-5H,1H3","IWYYIZOHWPCALJ-UHFFFAOYSA-N","Cc1cc[n+]([O-])cc1","0.9621","0.0","1","G1","109.12799999999999","0.62842","30.138999999999992","8.0","1.0","0.0","2.0","0.0","42.0","1.0","0.0","0.0","1.0","26.939999999999998","47.9742369531094","3.0324555320336755","147.38833891467198"
"B-1579","3-methyl-n-oxidepyridine","InChI=1S/C6H7NO/c1-6-3-2-4-7(8)5-6/h2-5H,1H3","DMGGLIWGZFZLIY-UHFFFAOYSA-N","CC1=CC=C[NH++]([O-])[CH-]1","0.9621","0.0","1","G1","110.136","0.004490000000000383","31.52669999999999","8.0","1.0","0.0","2.0","0.0","43.0","0.0","0.0","1.0","1.0","30.46","48.687030303792206","2.594318453782886","137.46396159818462"
"B-1580","desisopropylatrazine","InChI=1S/C5H8ClN5/c1-2-8-5-10-3(6)9-4(7)11-5/h2H2,1H3,(H3,7,8,9,10,11)","IVENSCMCQBJAKW-UHFFFAOYSA-N","CCNc1nc(N)nc(Cl)n1","-2.4135","0.0","1","G1","173.60700000000003","0.5389999999999999","43.4131","11.0","5.0","2.0","6.0","2.0","60.0","1.0","0.0","0.0","1.0","76.72","69.01325039863215","2.8918026096809815","230.3781349760138"
"B-1581","azacycloundecan-2-one","InChI=1S/C10H19NO/c12-10-8-6-4-2-1-3-5-7-9-11-10/h1-9H2,(H,11,12)","WULPUQZASCZTPO-UHFFFAOYSA-N","O=C1CCCCCCCCCN1","-1.8862","0.0","1","G1","169.268","2.237","49.94570000000003","12.0","1.0","1.0","2.0","0.0","70.0","0.0","1.0","1.0","1.0","29.1","74.72928318752162","2.1730987797541284","119.80026905978025"
"B-1582","desmetryne","InChI=1S/C8H15N5S/c1-5(2)10-7-11-6(9-3)12-8(13-7)14-4/h5H,1-4H3,(H2,9,10,11,12,13)","HCRWJJJUKUVORR-UHFFFAOYSA-N","CNc1nc(NC(C)C)nc(SC)n1","-2.5656","0.007800000000000029","2","G3","213.30999999999997","1.4555","59.913400000000024","14.0","6.0","2.0","6.0","4.0","78.0","1.0","0.0","0.0","1.0","62.730000000000004","88.13789202690086","2.9200182242358266","279.53315486014867"
"B-1583","1h-purine-2,6-dione, 7-butyl-3,7-dihydro-1,3-dim","InChI=1S/C11H16N4O2/c1-4-5-6-15-7-12-9-8(15)10(16)14(3)11(17)13(9)2/h7H,4-6H2,1-3H3","CPRWWXKLQNLTSZ-UHFFFAOYSA-N","CCCCn1cnc2N(C)C(=O)N(C)C(=O)c12","-1.8069","0.0","1","G1","236.27499999999998","0.2338","65.12300000000002","17.0","6.0","0.0","6.0","3.0","92.0","2.0","0.0","0.0","2.0","61.82","98.12378336133916","2.7663397915684915","662.3868721359065"
"B-1584","4h-3,1-benzoxazin-4-one, 2-phenyl","InChI=1S/C14H9NO2/c16-14-11-8-4-5-9-12(11)15-13(17-14)10-6-2-1-3-7-10/h1-9H","HTTLBYITFHMYFK-UHFFFAOYSA-N","O=C1OC(=Nc2ccccc12)c3ccccc3","-4.6084","0.0","1","G1","223.231","2.8550000000000004","65.71500000000002","17.0","3.0","0.0","3.0","1.0","82.0","3.0","0.0","0.0","3.0","43.1","97.35614876229555","2.299992357076278","716.8737734683815"
"B-1585","heptachlor epoxide","InChI=1S/C10H5Cl7O/c11-3-1-2(4-5(3)18-4)9(15)7(13)6(12)8(1,14)10(9,16)17/h1-5H","ZXFXBSWRVIQKOD-UHFFFAOYSA-N","ClC1C2OC2C3C1C4(Cl)C(=C(Cl)C3(Cl)C4(Cl)Cl)Cl","-6.2893","0.1264625460583313","3","G5","389.31999999999994","4.452700000000001","75.61900000000001","18.0","1.0","0.0","8.0","0.0","100.0","0.0","3.0","4.0","4.0","12.53","138.5472112287764","2.0104948353898764","476.4546632923554"
"B-1586","phosphonic diamide, p-(5-amino-3-phenyl-1h-1,2,4","InChI=1S/C12H19N6OP/c1-16(2)20(19,17(3)4)18-12(13)14-11(15-18)10-8-6-5-7-9-10/h5-9H,1-4H3,(H2,13,14,15)","BABJTMNVJXLAEX-UHFFFAOYSA-N","CN(C)[P](=O)(N(C)C)n1nc(nc1N)c2ccccc2","-3.0709","0.0","1","G1","294.29900000000004","1.6066999999999994","80.24890000000003","20.0","5.0","1.0","8.0","4.0","108.0","2.0","0.0","0.0","2.0","80.28","118.09293328584174","2.547868209885534","624.6520338909797"
"B-1587","glycine, n-(2,4,6-trinitrophenyl)-","InChI=1S/C8H6N4O8/c13-7(14)3-9-8-5(11(17)18)1-4(10(15)16)2-6(8)12(19)20/h1-2,9H,3H2,(H,13,14)","BUBMNUKMCHTIRR-UHFFFAOYSA-N","OC(=O)CNc1c(cc(cc1[N+]([O-])=O)[N+]([O-])=O)[N+]([O-])=O","-2.3922","0.0","1","G1","286.156","0.9077","62.53069999999998","20.0","8.0","2.0","12.0","6.0","106.0","1.0","0.0","0.0","1.0","178.75","108.62583255163739","3.5013825720592995","577.4895900738666"
"B-1588","octyl gallate","InChI=1S/C15H22O5/c1-2-3-4-5-6-7-8-20-15(19)11-9-12(16)14(18)13(17)10-11/h9-10,16-18H,2-8H2,1H3","NRPKURNSADTHLJ-UHFFFAOYSA-N","CCCCCCCCOC(=O)c1cc(O)c(O)c(O)c1","-3.8945","0.0","1","G1","282.336","3.320700000000003","75.09490000000002","20.0","5.0","3.0","5.0","8.0","112.0","1.0","0.0","0.0","1.0","86.99000000000001","118.37365073520515","2.3277387125884665","418.8851677560183"
"B-1589","dimethylsilanediol","InChI=1S/C2H8O2Si/c1-5(2,3)4/h3-4H,1-2H3","XCLIHDJZGPCUBT-UHFFFAOYSA-N","C[Si](C)(O)O","1.0354","0.0","1","G1","92.16999999999997","-0.32720000000000005","21.919599999999996","5.0","2.0","2.0","3.0","0.0","32.0","0.0","0.0","0.0","0.0","40.46","32.3203049498118","3.0237157840738176","23.11941547876375"
"B-1590","di-n-butyl tin diacetate","InChI=1S/2C4H9.2C2H4O2.Sn/c2*1-3-4-2;2*1-2(3)4;/h2*1,3-4H2,2H3;2*1H3,(H,3,4);/q;;;;+2/p-2","JJLKTTCRRLHVGL-UHFFFAOYSA-L","CCCC[Sn++]CCCC.CC([O-])=O.CC([O-])=O","-4.7672","0.0","1","G1","351.0310000000001","0.6397999999999997","66.54600000000005","17.0","4.0","0.0","5.0","6.0","100.0","0.0","0.0","0.0","0.0","80.25999999999999","115.0217903722054","-2.0461537998720426e-07","145.88856380345814"
"B-1591","glyphosphate","InChI=1S/C3H8NO5P/c5-3(6)1-4-2-10(7,8)9/h4H,1-2H2,(H,5,6)(H2,7,8,9)","XDDAORKBJWWYJS-UHFFFAOYSA-N","OC(=O)CNC[P](O)(O)=O","-1.2069","0.0","1","G1","169.073","-1.2042","32.54959999999999","10.0","3.0","4.0","7.0","4.0","60.0","0.0","0.0","0.0","0.0","106.86000000000001","57.02616121321046","3.3863376396888714","162.27599848312957"
"B-1592","1,3,4-thiadiazolidine-2,5-dithione","InChI=1S/C2H2N2S3/c5-1-3-4-2(6)7-1/h(H,3,5)(H,4,6)","BIGYLAKFCGVRAN-UHFFFAOYSA-N","S=C1NNC(=S)S1","-0.7552","0.0","1","G1","150.25300000000001","1.8632799999999998","34.688399999999994","7.0","3.0","2.0","5.0","0.0","38.0","1.0","0.0","0.0","1.0","31.58","54.19707641461596","3.5924568113957625","215.1827403486207"
"B-1593","1-bromo-2-fluorobenzene","InChI=1S/C6H4BrF/c7-5-3-1-2-4-6(5)8/h1-4H","IPWBFGUBXWMIPR-UHFFFAOYSA-N","Fc1ccccc1Br","-2.6958","0.0","1","G1","175.0","2.5882000000000005","34.1","8.0","0.0","0.0","2.0","0.0","42.0","1.0","0.0","0.0","1.0","0.0","55.464486128064564","3.134861511345448","164.63833891467198"
"B-1594","1h-pyrazol-4-ol, 1-phenyl-","InChI=1S/C9H8N2O/c12-9-6-10-11(7-9)8-4-2-1-3-5-8/h1-7,12H","PAIIFXHEHLRVNC-UHFFFAOYSA-N","Oc1cnn(c1)c2ccccc2","-1.9616","0.0","1","G1","160.176","1.5778999999999999","45.22880000000002","12.0","3.0","1.0","3.0","1.0","60.0","2.0","0.0","0.0","2.0","38.050000000000004","69.88996453471786","2.4450102492957595","367.02737763608667"
"B-1595","1-phenylheptane","InChI=1S/C13H20/c1-2-3-4-5-7-10-13-11-8-6-9-12-13/h6,8-9,11-12H,2-5,7,10H2,1H3","LBNXAWYDQUGHGX-UHFFFAOYSA-N","CCCCCCCc1ccccc1","-5.5959","0.0","1","G1","176.30300000000003","4.199500000000003","58.90500000000005","13.0","0.0","0.0","0.0","6.0","72.0","1.0","0.0","0.0","1.0","0.0","81.98599792027323","2.0653801840299586","200.53811204568342"
"B-1596","hexyl p-hydroxybenzoate","InChI=1S/C13H18O3/c1-2-3-4-5-10-16-13(15)11-6-8-12(14)9-7-11/h6-9,14H,2-5,10H2,1H3","ULULAZKOCFNOIM-UHFFFAOYSA-N","CCCCCCOC(=O)c1ccc(O)cc1","-3.949","0.0","1","G1","222.28400000000002","3.1293000000000015","62.531300000000044","16.0","3.0","1.0","3.0","6.0","88.0","1.0","0.0","0.0","1.0","46.53","96.0552990020199","2.2702939313664987","316.4545208125127"
"B-1597","heptyl p-hydroxybenzoate","InChI=1S/C14H20O3/c1-2-3-4-5-6-11-17-14(16)12-7-9-13(15)10-8-12/h7-10,15H,2-6,11H2,1H3","ZTJORNVITHUQJA-UHFFFAOYSA-N","CCCCCCCOC(=O)c1ccc(O)cc1","-4.0725","0.0","1","G1","236.311","3.5194000000000027","67.14830000000005","17.0","3.0","1.0","3.0","7.0","94.0","1.0","0.0","0.0","1.0","46.53","102.4202411164165","2.1877833988335254","329.82548829414884"
"B-1598","dichlofluanid","InChI=1S/C9H11Cl2FN2O2S2/c1-13(2)18(15,16)14(17-9(10,11)12)8-6-4-3-5-7-8/h3-7H,1-2H3","WURGXGVFSMYFCG-UHFFFAOYSA-N","CN(C)[S](=O)(=O)N(SC(F)(Cl)Cl)c1ccccc1","-5.4088","0.0","1","G1","333.237","3.006000000000001","74.66380000000002","18.0","3.0","0.0","9.0","5.0","102.0","1.0","0.0","0.0","1.0","40.620000000000005","119.97260559882045","3.205352782298732","491.0391413598906"
"B-1599","prednisolone 21-trimethylacetate","InChI=1S/C26H36O6/c1-23(2,3)22(30)32-14-20(29)26(31)11-9-18-17-7-6-15-12-16(27)8-10-24(15,4)21(17)19(28)13-25(18,26)5/h8,10,12,17-19,21,28,31H,6-7,9,11,13-14H2,1-5H3","PHEOVVDXTQVHAZ-UHFFFAOYSA-N","CC(C)(C)C(=O)OCC(=O)C1(O)CCC2C3CCC4=CC(=O)C=CC4(C)C3C(O)CC12C","-4.5835","0.0","1","G1","444.56800000000015","3.154600000000001","118.37660000000007","32.0","6.0","2.0","6.0","3.0","176.0","0.0","3.0","4.0","4.0","100.90000000000002","189.64685224328952","1.5965291070991952","909.7681154327623"
"B-1600","dimethoxon","InChI=1S/C5H12NO4PS/c1-6-5(7)4-12-11(8,9-2)10-3/h4H2,1-3H3,(H,6,7)","PZXOQEXFMJCDPG-UHFFFAOYSA-N","CNC(=O)CS[P](=O)(OC)OC","0.6712","0.0","1","G1","213.19499999999996","0.8664999999999998","48.14920000000002","12.0","5.0","1.0","7.0","5.0","72.0","0.0","0.0","0.0","0.0","64.63000000000001","75.47212929291317","3.89250063709835","189.887241290925"
"B-1602","dl-methionine, n-acetyl-","InChI=1S/C7H13NO3S/c1-5(9)8-6(7(10)11)3-4-12-2/h6H,3-4H2,1-2H3,(H,8,9)(H,10,11)/p-1/t6-/m1/s1","XUYPXLNMDZIRQH-ZCFIWIBFSA-M","CSCC[C@@H](NC(C)=O)C([O-])=O","-0.3216","0.0","1","G1","190.24399999999997","-1.0058999999999994","45.61070000000002","12.0","4.0","1.0","5.0","5.0","70.0","0.0","0.0","0.0","0.0","69.22999999999999","75.71915387546603","3.8654245531887197","172.0344235629434"
"B-1603","heptanoic acid, 2-amino-, (.+-.)-","InChI=1S/C7H15NO2/c1-2-3-4-5-6(8)7(9)10/h6H,2-5,8H2,1H3,(H,9,10)","RDFMDVXONNIGBC-UHFFFAOYSA-N","CCCCCC(N)C(O)=O","-0.94","0.0","1","G1","145.202","0.9786000000000001","39.75319999999999","10.0","2.0","2.0","3.0","5.0","60.0","0.0","0.0","0.0","0.0","63.32","61.22455026346168","3.2148768968244483","103.7792291661388"
"B-1604","n-nitrosodiethanolamine","InChI=1S/C4H10N2O3/c7-3-1-6(5-9)2-4-8/h7-8H,1-4H2","YFCDLVPYFMHRQZ-UHFFFAOYSA-N","OCCN(CCO)N=O","0.8724","0.0","1","G1","134.135","-1.0456","31.53959999999999","9.0","4.0","2.0","5.0","5.0","54.0","0.0","0.0","0.0","0.0","73.13","52.847246550080214","3.285299824207474","72.2129994085646"
"B-1605","tri(n-octyl)amine","InChI=1S/C24H51N/c1-4-7-10-13-16-19-22-25(23-20-17-14-11-8-5-2)24-21-18-15-12-9-6-3/h4-24H2,1-3H3","XTAZYLNFDRKIHJ-UHFFFAOYSA-N","CCCCCCCCN(CCCCCCCC)CCCCCCCC","-6.8496","0.0","1","G1","353.6790000000002","8.369900000000007","116.56800000000011","25.0","1.0","0.0","1.0","21.0","152.0","0.0","0.0","0.0","0.0","3.24","160.8927533291549","3.760771658852694","188.09640474436813"
"B-1606","urea, (1,1-dimethylethyl)-","InChI=1S/C5H12N2O/c1-5(2,3)7-4(6)8/h1-3H3,(H3,6,7,8)","JLEHSYHLHLHPAL-UHFFFAOYSA-N","CC(C)(C)NC(N)=O","-0.7306","0.0","1","G1","116.164","0.4532000000000002","32.47209999999999","8.0","1.0","2.0","3.0","0.0","48.0","0.0","0.0","0.0","0.0","55.12","49.2502944660805","3.5512529243669313","93.09201719290463"
"B-1607","1,3-disiloxanediol, 1,1,3,3-tetramethyl-","InChI=1S/C4H14O3Si2/c1-8(2,5)7-9(3,4)6/h5-6H,1-4H3","PFEAZKFNWPIFCV-UHFFFAOYSA-N","C[Si](C)(O)O[Si](C)(C)O","-0.1796","0.0","1","G1","166.325","0.3911999999999998","40.48660000000001","9.0","3.0","2.0","5.0","2.0","56.0","0.0","0.0","0.0","0.0","49.69","57.7913787113055","3.7464179312510324","78.96632017383186"
"B-1608","pentanedioic acid, dimethyl ester","InChI=1S/C7H12O4/c1-10-6(8)4-3-5-7(9)11-2/h3-5H2,1-2H3","XTDYIOOONNVFMA-UHFFFAOYSA-N","COC(=O)CCCC(=O)OC","-0.4337","0.014575447549999981","2","G3","160.169","0.5026999999999999","37.883","11.0","4.0","0.0","4.0","4.0","64.0","0.0","0.0","0.0","0.0","52.60000000000001","65.47903837331049","3.2703753945873237","125.3759999531186"
"B-1610","2-heptyne","InChI=1S/C7H12/c1-3-5-7-6-4-2/h3,5,7H2,1-2H3","AMSFEMSYKQQCHL-UHFFFAOYSA-N","CCCCC#CC","-2.7695","0.0","1","G1","96.17299999999999","2.1999000000000004","32.97499999999999","7.0","0.0","0.0","0.0","2.0","40.0","0.0","0.0","0.0","0.0","0.0","45.92812910606846","2.7823276365211047","71.77443751081735"
"B-1611","n-undecane","InChI=1S/C11H24/c1-3-5-7-9-11-10-8-6-4-2/h3-11H2,1-2H3","RSJKGSCJYJTIGS-UHFFFAOYSA-N","CCCCCCCCCCC","-7.5505","0.0","1","G1","156.313","4.537100000000004","52.90100000000004","11.0","0.0","0.0","0.0","8.0","68.0","0.0","0.0","0.0","0.0","0.0","72.38867217179563","2.6909155266923976","49.05865002596163"
"B-1612","2,4,5-trimethylpyridine","InChI=1S/C8H11N/c1-6-4-8(3)9-5-7(6)2/h4-5H,1-3H3","MNDSSKADVGDFDF-UHFFFAOYSA-N","Cc1cc(C)c(C)cn1","-0.7824","0.0","1","G1","121.18299999999999","2.00686","38.44800000000001","9.0","1.0","0.0","1.0","0.0","48.0","1.0","0.0","0.0","1.0","12.89","55.7458774436333","3.1716780304409156","215.80766205433727"
"B-1613","4-dimethylaminopyridine","InChI=1S/C7H10N2/c1-9(2)7-3-5-8-6-4-7/h3-6H,1-2H3/p+1","VHYFNPMBLIVWCW-UHFFFAOYSA-O","CN(C)c1cc[nH+]cc1","-0.2062","0.0","1","G1","123.17899999999996","0.5667","37.3247","9.0","1.0","0.0","2.0","1.0","48.0","1.0","0.0","0.0","1.0","17.380000000000003","55.14076899944006","2.848234050597751","169.53084197973996"
"B-1614","pyridine, 2-ethyl-6-methyl-","InChI=1S/C8H11N/c1-3-8-6-4-5-7(2)9-8/h4-6H,3H2,1-2H3","SFSXNVBMAODLGN-UHFFFAOYSA-N","CCc1cccc(C)n1","-0.8234","0.0","1","G1","121.18299999999998","1.95242","38.35200000000001","9.0","1.0","0.0","1.0","1.0","48.0","1.0","0.0","0.0","1.0","12.89","55.7458774436333","2.9368661023365914","193.51405299160075"
"B-1615","1-hydroxy-cyclohexanecarboxylic acid","InChI=1S/C7H12O3/c8-6(9)7(10)4-2-1-3-5-7/h10H,1-5H2,(H,8,9)","BPOVRAAUERBWFK-UHFFFAOYSA-N","OC(=O)C1(O)CCCCC1","-0.3328","0.0","1","G1","144.17","0.7662","35.6706","10.0","2.0","2.0","3.0","1.0","58.0","0.0","1.0","1.0","1.0","57.53","59.67306216511577","2.5632261085598094","135.78664559481845"
"B-1616","phenol, 4-chloro-2,6-dimethyl-","InChI=1S/C8H9ClO/c1-5-3-7(9)4-6(2)8(5)10/h3-4,10H,1-2H3","VWYKSJIPZHRLNO-UHFFFAOYSA-N","Cc1cc(Cl)cc(C)c1O","-1.6763","0.0","1","G1","156.612","2.6624400000000015","42.59080000000002","10.0","1.0","1.0","2.0","0.0","54.0","1.0","0.0","0.0","1.0","20.23","65.25878732736787","3.3105328747224068","232.42965837655686"
"B-1618","pteridine, 7-chloro-","InChI=1S/C6H3ClN4/c7-5-2-9-4-1-8-3-10-6(4)11-5/h1-3H","AANUQVPVSJJCRI-UHFFFAOYSA-N","Clc1cnc2cncnc2n1","-0.8749","0.0","1","G1","166.57099999999997","1.0731999999999997","40.138000000000005","11.0","4.0","0.0","5.0","0.0","54.0","2.0","0.0","0.0","2.0","51.56","67.2949258018999","2.8289012156206956","388.99399634322515"
"B-1619","1,2-benzenediol, 4-(2-propenyl)-","InChI=1S/C9H10O2/c1-2-3-7-4-5-8(10)9(11)6-7/h2,4-6,10-11H,1,3H2","FHEHIXJLCWUPCZ-UHFFFAOYSA-N","Oc1ccc(CC=C)cc1O","-0.7787","0.0","1","G1","150.177","1.8262999999999998","43.672600000000024","11.0","2.0","2.0","2.0","2.0","58.0","1.0","0.0","0.0","1.0","40.46","65.42509393489455","2.9473707295369223","266.26528506874683"
"B-1620","1h-pyrazol-5-amine, 3-methyl-1-phenyl-","InChI=1S/C10H11N3/c1-8-7-10(11)13(12-8)9-5-3-2-4-6-9/h2-7H,11H2,1H3","FMKMKBLHMONXJM-UHFFFAOYSA-N","Cc1cc(N)n(n1)c2ccccc2","-0.9376","0.0","1","G1","173.21900000000005","1.7629199999999998","52.713400000000014","13.0","3.0","1.0","3.0","1.0","66.0","2.0","0.0","0.0","2.0","43.84","76.80056359393117","2.52646374475782","403.3631367594395"
"B-1621","p-cyclohexylphenol","InChI=1S/C12H16O/c13-12-8-6-11(7-9-12)10-4-2-1-3-5-10/h6-10,13H,1-5H2","OAHMVZYHIJQTQC-UHFFFAOYSA-N","Oc1ccc(cc1)C2CCCCC2","-3.468","0.3039447931999999","2","G3","176.25899999999993","3.4399000000000015","53.932800000000036","13.0","1.0","1.0","1.0","1.0","70.0","1.0","1.0","1.0","2.0","20.23","79.40945840454341","2.100180418908758","256.95789509358224"
"B-1622","cycloate","InChI=1S/C11H21NOS/c1-3-12(11(13)14-4-2)10-8-6-5-7-9-10/h10H,3-9H2,1-2H3","DFCAFRGABIXSDS-UHFFFAOYSA-N","CCSC(=O)N(CC)C1CCCCC1","-3.4037","0.0","1","G1","215.36199999999994","3.5141000000000027","62.78100000000004","14.0","2.0","0.0","3.0","3.0","82.0","0.0","1.0","1.0","1.0","20.310000000000002","91.42730681387879","2.4593312217351424","178.1263448992907"
"B-1623","diphenyltin dichloride","InChI=1S/2C6H5.2ClH.Sn/c2*1-2-4-6-5-3-1;;;/h2*1-5H;2*1H;/q;;;;+2/p-2","ISXUHJXWYNONDI-UHFFFAOYSA-L","Cl[Sn](Cl)(c1ccccc1)c2ccccc2","-3.8373","0.0","1","G1","343.82900000000006","2.720600000000001","69.61200000000002","15.0","0.0","0.0","3.0","2.0","76.0","2.0","0.0","0.0","2.0","0.0","101.14930877372448","2.442186510719565","384.3898117677986"
"B-1624","1-butyl theobromine","InChI=1S/C11H16N4O2/c1-4-5-6-15-10(16)8-9(12-7-13(8)2)14(3)11(15)17/h7H,4-6H2,1-3H3","ZCUPBJOZMPROIJ-UHFFFAOYSA-N","CCCCN1C(=O)N(C)c2ncn(C)c2C1=O","-1.6252","0.0","1","G1","236.27499999999998","0.23379999999999979","65.12300000000003","17.0","6.0","0.0","6.0","3.0","92.0","2.0","0.0","0.0","2.0","61.82","98.12378336133915","2.8009931819001164","662.3868721359066"
"B-1625","tolazamide","InChI=1S/C14H21N3O3S/c1-12-6-8-13(9-7-12)21(19,20)16-14(18)15-17-10-4-2-3-5-11-17/h6-9H,2-5,10-11H2,1H3,(H2,15,16,18)","OUDSBRTVNLOZBN-UHFFFAOYSA-N","Cc1ccc(cc1)[S](=O)(=O)NC(=O)NN2CCCCCC2","-3.6778","0.0","1","G1","311.40700000000015","1.77392","80.07320000000004","21.0","4.0","2.0","7.0","3.0","116.0","1.0","1.0","1.0","2.0","78.50999999999999","125.0971009312539","1.9555505102862112","575.9867251456668"