"ID","Name","InChI","InChIKey","SMILES","Solubility","SD","Ocurrences","Group","MolWt","MolLogP","MolMR","HeavyAtomCount","NumHAcceptors","NumHDonors","NumHeteroatoms","NumRotatableBonds","NumValenceElectrons","NumAromaticRings","NumSaturatedRings","NumAliphaticRings","RingCount","TPSA","LabuteASA","BalabanJ","BertzCT"
"B-1370","p-methylstyrene","InChI=1S/C9H10/c1-3-9-6-4-8(2)5-7-9/h3-7H,1H2,2H3","JLBJTVDPSNHSKJ-UHFFFAOYSA-N","Cc1ccc(C=C)cc1","-3.1232","0.0","1","G1","118.17899999999999","2.638020000000001","41.27000000000002","9.0","0.0","0.0","0.0","1.0","46.0","1.0","0.0","0.0","1.0","0.0","55.83662643050253","3.0097819477866006","193.78322454351996"
"B-1371","p-hydroxybenzyl alcohol","InChI=1S/C7H8O2/c8-5-6-1-3-7(9)4-2-6/h1-4,8-9H,5H2","BVJSUAQZOZWCKN-UHFFFAOYSA-N","OCc1ccc(O)cc1","-1.2678","0.0","1","G1","124.13899999999997","0.8845000000000001","34.029599999999995","9.0","2.0","2.0","2.0","1.0","48.0","1.0","0.0","0.0","1.0","40.46","53.384812738285596","2.881555877646136","178.61256853719752"
"B-1373","1,4-benzenedicarboxaldehyde","InChI=1S/C8H6O2/c9-5-7-1-2-8(6-10)4-3-7/h1-6H","KUCOHFSKRZZVRO-UHFFFAOYSA-N","O=Cc1ccc(C=O)cc1","-2.8265","0.0","1","G1","134.134","1.3115999999999999","37.217000000000006","10.0","2.0","0.0","2.0","2.0","50.0","1.0","0.0","0.0","1.0","34.14","58.4843315483777","2.999871950290996","208.93943338088377"
"B-1374","methylbutyrate","InChI=1S/C5H10O2/c1-3-4-5(6)7-2/h3-4H2,1-2H3","UUIQMZJEGPQKFD-UHFFFAOYSA-N","CCCC(=O)OC","-0.8331","0.515485016486631","3","G4","102.13299999999998","0.9595","26.923999999999985","7.0","2.0","0.0","2.0","2.0","42.0","0.0","0.0","0.0","0.0","26.3","43.47408681496663","3.002590528674132","59.10049400592805"
"B-1375","1,2-propylene glycol diacetate","InChI=1S/C7H12O4/c1-5(11-7(3)9)4-10-6(2)8/h5H,4H2,1-3H3","MLHOXUWWKVQEJB-UHFFFAOYSA-N","CC(COC(C)=O)OC(C)=O","-0.2046","0.0","1","G1","160.16899999999998","0.5011000000000001","37.861000000000004","11.0","4.0","0.0","4.0","3.0","64.0","0.0","0.0","0.0","0.0","52.6","65.47903837331049","3.4425479949638413","152.51956340253028"
"B-1376","decanedioic acid, bis(2-ethoxyethyl) ester","InChI=1S/C18H34O6/c1-3-21-13-15-23-17(19)11-9-7-5-6-8-10-12-18(20)24-16-14-22-4-2/h3-16H2,1-2H3","UVRXDBUBNLXONB-UHFFFAOYSA-N","CCOCCOC(=O)CCCCCCCCC(=O)OCCOCC","-3.1972","0.0","1","G1","346.4640000000001","3.266600000000002","91.84000000000007","24.0","6.0","0.0","6.0","17.0","142.0","0.0","0.0","0.0","0.0","71.06","145.720492090687","3.2401387407628253","275.8841107235303"
"B-1377","diethyl azelate","InChI=1S/C13H24O4/c1-3-16-12(14)10-8-6-5-7-9-11-13(15)17-4-2/h3-11H2,1-2H3","CQMYCPZZIPXILQ-UHFFFAOYSA-N","CCOC(=O)CCCCCCCC(=O)OCC","-2.99","0.0","1","G1","244.33099999999993","2.843300000000001","65.58500000000005","17.0","4.0","0.0","4.0","10.0","100.0","0.0","0.0","0.0","0.0","52.60000000000001","103.66869105969015","3.18321125293434","191.46500194404416"
"B-1378","methyl valerate","InChI=1S/C6H12O2/c1-3-4-5-6(7)8-2/h3-5H2,1-2H3","HNBDRPTVWVGKBR-UHFFFAOYSA-N","CCCCC(=O)OC","-1.3606","0.08090166070743814","3","G5","116.15999999999998","1.3496000000000001","31.540999999999983","8.0","2.0","0.0","2.0","3.0","48.0","0.0","0.0","0.0","0.0","26.3","49.83902892936323","2.988598647973156","68.92878689342031"
"B-1379","1,4-diiodobenzene","InChI=1S/C6H4I2/c7-5-1-2-6(8)4-3-5/h1-4H","LFMWZTSOMGDDJU-UHFFFAOYSA-N","Ic1ccc(I)cc1","-5.3723","0.0","1","G1","329.906","2.8958000000000013","51.87600000000001","8.0","0.0","0.0","2.0","0.0","42.0","1.0","0.0","0.0","1.0","0.0","75.95507936158425","3.0324555320336755","145.38833891467198"
"B-1381","3-nonanol","InChI=1S/C9H20O/c1-3-5-6-7-8-9(10)4-2/h9-10H,3-8H2,1-2H3","GYSCXPVAKHVAAY-UHFFFAOYSA-N","CCCCCCC(O)CC","-2.6608","0.0","1","G1","144.25799999999998","2.7277000000000013","45.05680000000002","10.0","1.0","1.0","1.0","6.0","62.0","0.0","0.0","0.0","0.0","20.23","64.45302169519842","2.8861627976234385","61.74860596185444"
"B-1383","ethane, 1,2-diiodo-","InChI=1S/C2H4I2/c3-1-2-4/h1-2H2","GBBZLMLLFVFKJM-UHFFFAOYSA-N","ICCI","-3.2196","0.0","1","G1","281.86199999999997","1.8564","37.77400000000001","4.0","0.0","0.0","2.0","1.0","26.0","0.0","0.0","0.0","0.0","0.0","53.62786938431343","1.9747448713915894","6.0"
"B-1384","3,3-dimethyl-1-butanol","InChI=1S/C6H14O/c1-6(2,3)4-5-7/h7H,4-5H2,1-3H3","DUXCSEISVMREAX-UHFFFAOYSA-N","CC(C)(C)CCO","-1.1308","0.3154","2","G3","102.17699999999999","1.4149","31.15779999999998","7.0","1.0","1.0","1.0","1.0","44.0","0.0","0.0","0.0","0.0","20.23","45.35819535200859","3.154490065368808","42.63193444574935"
"B-1385","2,4-dimethyl-2-pentanol","InChI=1S/C7H16O/c1-6(2)5-7(3,4)8/h6,8H,5H2,1-4H3","FMLSQAUAAGVTJO-UHFFFAOYSA-N","CC(C)CC(C)(C)O","-0.9307","0.017364011313313756","3","G5","116.20399999999998","1.8034","35.75279999999999","8.0","1.0","1.0","1.0","2.0","50.0","0.0","0.0","0.0","0.0","20.23","51.7231374664052","3.388924101358251","59.277302439017085"
"B-1386","urea, (1,1-dimethylpropyl)-","InChI=1S/C6H14N2O/c1-4-6(2,3)8-5(7)9/h4H2,1-3H3,(H3,7,8,9)","OVUWGANMOQIFHZ-UHFFFAOYSA-N","CCC(C)(C)NC(N)=O","-1.0142","0.0","1","G1","130.191","0.8433000000000002","37.08909999999999","9.0","1.0","2.0","3.0","2.0","54.0","0.0","0.0","0.0","0.0","55.12","55.61523658047711","3.713999809664675","109.62548782626679"
"B-1387","2-methyl-2-hexanol","InChI=1S/C7H16O/c1-4-5-6-7(2,3)8/h8H,4-6H2,1-3H3","KRIMXCDMVRMCTC-UHFFFAOYSA-N","CCCCC(C)(C)O","-1.0784","0.0","1","G1","116.20399999999998","1.9475000000000002","35.822799999999994","8.0","1.0","1.0","1.0","3.0","50.0","0.0","0.0","0.0","0.0","20.23","51.7231374664052","3.1117661943884265","51.897390567231454"
"B-1388","2-methyl-2-heptanol","InChI=1S/C8H18O/c1-4-5-6-7-8(2,3)9/h9H,4-7H2,1-3H3","ACBMYYVZWKYLIP-UHFFFAOYSA-N","CCCCCC(C)(C)O","-1.7168","0.0","1","G1","130.231","2.3376000000000006","40.439800000000005","9.0","1.0","1.0","1.0","4.0","56.0","0.0","0.0","0.0","0.0","20.23","58.08807958080181","3.072989461365733","61.45811190640112"
"B-1390","methyl isobutyl ether","InChI=1S/C5H12O/c1-5(2)4-6-3/h5H,4H2,1-3H3","ZYVYEJXMYBUCMN-UHFFFAOYSA-N","COCC(C)C","-0.9007","0.0","1","G1","88.15","1.2888000000000002","26.713999999999988","6.0","1.0","0.0","1.0","2.0","38.0","0.0","0.0","0.0","0.0","9.23","39.31256471492286","2.6272148478988635","25.11941547876375"
"B-1391","methoxyacetic acid","InChI=1S/C3H6O3/c1-6-2-3(4)5/h2H2,1H3,(H,4,5)","RMIODHQZRUFFFF-UHFFFAOYSA-N","COCC(O)=O","1.0454","0.0","1","G1","90.07799999999999","-0.2826","19.511799999999997","6.0","2.0","1.0","3.0","2.0","36.0","0.0","0.0","0.0","0.0","46.53","35.53843633836942","2.831257109931365","50.0"
"B-1392","2-nitroethanol","InChI=1S/C2H5NO3/c4-2-1-3(5)6/h4H,1-2H2","KIPMDPDAFINLIV-UHFFFAOYSA-N","OCC[N+]([O-])=O","1.0406","0.0","1","G1","91.06599999999999","-0.7445999999999999","18.9472","6.0","3.0","1.0","4.0","2.0","36.0","0.0","0.0","0.0","0.0","63.37","34.55140261692197","2.831257109931365","52.75488750216347"
"B-1393","ethyl isopropyl ether","InChI=1S/C5H12O/c1-4-6-5(2)3/h5H,4H2,1-3H3","XSJVWZAETSBXKU-UHFFFAOYSA-N","CCOC(C)C","-0.5607","0.005349999999999966","2","G3","88.15","1.4313","26.761999999999986","6.0","1.0","0.0","1.0","2.0","38.0","0.0","0.0","0.0","0.0","9.23","39.31256471492286","2.6272148478988635","25.11941547876375"
"B-1394","isopropyl formate","InChI=1S/C4H8O2/c1-4(2)6-3-5/h3-4H,1-2H3","RMOUBSOVHSONPZ-UHFFFAOYSA-N","CC(C)OC=O","-0.6301","0.0","1","G1","88.106","0.5678","22.284999999999993","6.0","2.0","0.0","2.0","2.0","36.0","0.0","0.0","0.0","0.0","26.3","37.10914470057001","2.8141442217770303","40.81274391313339"
"B-1395","3-chloroiodobenzene","InChI=1S/C6H4ClI/c7-5-2-1-3-6(8)4-5/h1-4H","JMLWXCJXOYDXRN-UHFFFAOYSA-N","Clc1cccc(I)c1","-3.55","0.008999999999999897","2","G3","238.45499999999998","2.9446000000000003","44.16900000000001","8.0","0.0","0.0","2.0","0.0","42.0","1.0","0.0","0.0","1.0","0.0","66.99650746742228","3.077660437970554","168.38833891467198"
"B-1397","2,4-dihydroxypyridine","InChI=1S/C5H5NO2/c7-4-1-2-6-5(8)3-4/h1-3H,(H2,6,7,8)","ZEZJPIDPVXJEME-UHFFFAOYSA-N","OC1=CC(=O)C=CN1","-1.2498","0.0","1","G1","111.09999999999998","0.08049999999999996","28.727499999999996","8.0","2.0","2.0","3.0","0.0","42.0","1.0","0.0","0.0","1.0","53.089999999999996","45.60680695268326","3.277417459528498","227.8703210229147"
"B-1398","1,3-benzenedimethanol","InChI=1S/C8H10O2/c9-5-7-2-1-3-8(4-7)6-10/h1-4,9-10H,5-6H2","YWMLORGQOFONNT-UHFFFAOYSA-N","OCc1cccc(CO)c1","-0.2328","0.0","1","G1","138.166","0.6712","38.287600000000005","10.0","2.0","2.0","2.0","2.0","54.0","1.0","0.0","0.0","1.0","40.46","59.749754852682194","2.8711457287957725","188.91749419417292"
"B-1399","24pyrimidinedione6methyl","InChI=1S/C5H6N2O2/c1-3-2-4(8)7-5(9)6-3/h2H,1H3,(H2,6,7,8,9)","SHVCSCWHWMSGTE-UHFFFAOYSA-N","CC1=CC(=O)NC(=O)N1","-1.2557","0.0","1","G1","126.115","-0.6283800000000002","32.420399999999994","9.0","2.0","2.0","4.0","0.0","48.0","1.0","0.0","0.0","1.0","65.72","50.55868539587413","3.515622477176413","280.9743004823358"
"B-1400","4-hydroxypyridine","InChI=1S/C5H5NO/c7-5-1-3-6-4-2-5/h1-4H,(H,6,7)","GCNTZFIIOFTKIY-UHFFFAOYSA-N","O=C1C=CNC=C1","1.0218","0.0","1","G1","95.10099999999998","0.37490000000000007","27.062699999999996","7.0","1.0","1.0","2.0","0.0","36.0","1.0","0.0","0.0","1.0","32.86","40.812573200487236","3.27532977603021","173.77657195858635"
"B-1401","2-propanol, 1,3-bis(3-methylbutoxy)-","InChI=1S/C13H28O3/c1-11(2)5-7-15-9-13(14)10-16-8-6-12(3)4/h11-14H,5-10H2,1-4H3","ARRCKRNGGJHASO-UHFFFAOYSA-N","CC(C)CCOCC(O)COCCC(C)C","-1.3662","0.0","1","G1","232.36399999999995","2.4727000000000006","66.55480000000006","16.0","3.0","1.0","3.0","10.0","98.0","0.0","0.0","0.0","0.0","38.69","100.13988061179859","3.2103367863514576","130.11313276451386"
"B-1402","hexanedioic acid, monoethyl ester","InChI=1S/C8H14O4/c1-2-12-8(11)6-4-3-5-7(9)10/h2-6H2,1H3,(H,9,10)","UZNLHJCCGYKCIL-UHFFFAOYSA-N","CCOC(=O)CCCCC(O)=O","-0.3602","0.0","1","G1","174.196","1.1945000000000001","42.73680000000001","12.0","3.0","1.0","4.0","6.0","70.0","0.0","0.0","0.0","0.0","63.6","71.52466901039624","3.1924992871320796","153.1368500605771"
"B-1403","4-methyl-1-pentanol","InChI=1S/C6H14O/c1-6(2)4-3-5-7/h6-7H,3-5H2,1-2H3","PCWGTDULNUVNBN-UHFFFAOYSA-N","CC(C)CCCO","-1.1286","0.005699999999999927","2","G3","102.17699999999999","1.4149","31.15779999999998","7.0","1.0","1.0","1.0","3.0","44.0","0.0","0.0","0.0","0.0","20.23","45.35819535200859","2.6782577431647265","33.16125945873016"
"B-1404","2-pentenoic acid","InChI=1S/C5H8O2/c1-2-3-4-5(6)7/h3-4H,2H2,1H3,(H,6,7)/b4-3-","YIYBQIKDCADOSF-ARJAWSKDSA-N","CC\C=C/C(O)=O","-0.2019","0.0","1","G1","100.11699999999999","1.0372000000000001","27.06679999999999","7.0","1.0","1.0","2.0","2.0","40.0","0.0","0.0","0.0","0.0","37.3","42.4651723054715","3.2641672832723474","84.08094399727418"
"B-1405","propyl isopropyl ether","InChI=1S/C6H14O/c1-4-5-7-6(2)3/h6H,4-5H2,1-3H3","JIEJJGMNDWIGBJ-UHFFFAOYSA-N","CCCOC(C)C","-1.3373","0.0","1","G1","102.17699999999998","1.8214000000000001","31.378999999999984","7.0","1.0","0.0","1.0","3.0","44.0","0.0","0.0","0.0","0.0","9.23","45.67750682931947","2.678257743164726","33.16125945873016"
"B-1406","1-propylnitrate","InChI=1S/C3H7NO3/c1-2-3-7-4(5)6/h2-3H2,1H3","JNTOKFNBDFMTIV-UHFFFAOYSA-N","CCCO[N+]([O-])=O","-1.5044","0.0","1","G1","105.09299999999999","0.6047","23.237399999999994","7.0","3.0","0.0","4.0","3.0","42.0","0.0","0.0","0.0","0.0","52.37","41.189694708107425","2.8219389370591843","63.200359476037924"
"B-1407","3-bromopropanol","InChI=1S/C3H7BrO/c4-2-1-3-5/h5H,1-3H2","RQFUZUMFPRMVDX-UHFFFAOYSA-N","OCCCBr","0.0093","0.0","1","G1","138.992","0.7637","25.49679999999999","5.0","1.0","1.0","2.0","2.0","32.0","0.0","0.0","0.0","0.0","20.23","40.13091661446014","2.19060968716425","14.364527976600282"
"B-1409","3-chloro-1-propanol","InChI=1S/C3H7ClO/c4-2-1-3-5/h5H,1-3H2","LAMUXTNQCICZQX-UHFFFAOYSA-N","OCCCCl","0.4223","0.0","1","G1","94.541","0.6075999999999999","22.42279999999999","5.0","1.0","1.0","2.0","2.0","32.0","0.0","0.0","0.0","0.0","20.23","36.566635235700446","2.19060968716425","14.364527976600282"
"B-1410","ethane, 1-chloro-2-methoxy-","InChI=1S/C3H7ClO/c1-5-3-2-4/h2-3H2,1H3","XTIGGAHUZJWQMD-UHFFFAOYSA-N","COCCCl","-0.0725","0.0","1","G1","94.541","0.8716","22.595999999999993","5.0","1.0","0.0","2.0","2.0","32.0","0.0","0.0","0.0","0.0","9.23","36.885946713011315","2.19060968716425","14.364527976600282"
"B-1411","5-methyl-2-hexanol","InChI=1S/C7H16O/c1-6(2)4-5-7(3)8/h6-8H,4-5H2,1-3H3","ZDVJGWXFXGJSIU-UHFFFAOYSA-N","CC(C)CCC(C)O","-1.375","0.0","1","G1","116.20399999999998","1.8034","35.75279999999999","8.0","1.0","1.0","1.0","3.0","50.0","0.0","0.0","0.0","0.0","20.23","51.7231374664052","2.9278193611827583","40.34851554559677"
"B-1412","3-isopentyloxy-propane-1,2-diol","InChI=1S/C8H18O3/c1-7(2)3-4-11-6-8(10)5-9/h7-10H,3-6H2,1-2H3","AIOHBDYXYKMBIF-UHFFFAOYSA-N","CC(C)CCOCC(O)CO","-1.2101","0.0","1","G1","162.22899999999998","0.40229999999999994","43.36660000000001","11.0","3.0","2.0","3.0","6.0","68.0","0.0","0.0","0.0","0.0","49.69","67.9958585625047","3.014446818437732","83.40635591286735"
"B-1413","hexanedioic acid, dimethyl ester","InChI=1S/C8H14O4/c1-11-7(9)5-3-4-6-8(10)12-2/h3-6H2,1-2H3","UDSFAEKRVUSQDD-UHFFFAOYSA-N","COC(=O)CCCCC(=O)OC","-1.4629","0.3795041006701314","4","G5","174.196","0.8927999999999998","42.500000000000014","12.0","4.0","0.0","4.0","5.0","70.0","0.0","0.0","0.0","0.0","52.60000000000001","71.8439804877071","3.211729783466108","135.13685006057713"
"B-1414","methyl n-butyl ether","InChI=1S/C5H12O/c1-3-4-5-6-2/h3-5H2,1-2H3","CXBDYQVECUFKRK-UHFFFAOYSA-N","CCCCOC","-0.9907","0.0","1","G1","88.14999999999999","1.4329","26.78399999999999","6.0","1.0","0.0","1.0","3.0","38.0","0.0","0.0","0.0","0.0","9.23","39.31256471492286","2.3390923149762908","15.900134529890124"
"B-1415","ethyl propyl ether","InChI=1S/C5H12O/c1-3-5-6-4-2/h3-5H2,1-2H3","NVJUHMXYKCUMQA-UHFFFAOYSA-N","CCCOCC","-0.6806","0.08278266055696015","3","G5","88.14999999999999","1.4329","26.78399999999999","6.0","1.0","0.0","1.0","3.0","38.0","0.0","0.0","0.0","0.0","9.23","39.31256471492286","2.3390923149762908","15.900134529890124"
"B-1416","n-amyl acetate","InChI=1S/C7H14O2/c1-3-4-5-6-9-7(2)8/h3-6H2,1-2H3","PGMYKACGEOXYJE-UHFFFAOYSA-N","CCCCCOC(C)=O","-1.8841","0.0","1","G1","130.18699999999998","1.7397","36.157999999999994","9.0","2.0","0.0","2.0","4.0","54.0","0.0","0.0","0.0","0.0","26.3","56.203971043759836","2.828868134909685","78.98533616859814"
"B-1417","1,3-propanediol, diacetate","InChI=1S/C7H12O4/c1-6(8)10-4-3-5-11-7(2)9/h3-5H2,1-2H3","DSVGICPKBRQDDX-UHFFFAOYSA-N","CC(=O)OCCCOC(C)=O","-0.2046","0.0","1","G1","160.169","0.5026999999999999","37.883","11.0","4.0","0.0","4.0","4.0","64.0","0.0","0.0","0.0","0.0","52.6","65.47903837331049","3.0256083367235656","125.3759999531186"
"B-1418","1-heptyne","InChI=1S/C7H12/c1-3-5-7-6-4-2/h1H,4-7H2,2H3","YVXHZKKCZYLQOP-UHFFFAOYSA-N","CCCCCC#C","-3.0099","0.0","1","G1","96.17299999999999","2.1999000000000004","32.97499999999998","7.0","0.0","0.0","0.0","3.0","40.0","0.0","0.0","0.0","0.0","0.0","45.92812910606846","2.599038279224843","56.92878689342031"
"B-1420","1-octyne","InChI=1S/C8H14/c1-3-5-7-8-6-4-2/h1H,4-8H2,2H3","UMIPWJGWASORKV-UHFFFAOYSA-N","CCCCCCC#C","-3.662","0.0","1","G1","110.19999999999999","2.5900000000000007","37.592","8.0","0.0","0.0","0.0","4.0","46.0","0.0","0.0","0.0","0.0","0.0","52.29307122046507","2.646949873687806","66.59772060569361"
"B-1421","n-tridecane","InChI=1S/C13H28/c1-3-5-7-9-11-13-12-10-8-6-4-2/h3-13H2,1-2H3","IIYFAKIEWZDVMP-UHFFFAOYSA-N","CCCCCCCCCCCCC","-7.5936","0.0","1","G1","184.36699999999996","5.317300000000005","62.13500000000006","13.0","0.0","0.0","0.0","10.0","80.0","0.0","0.0","0.0","0.0","0.0","85.11855640058886","2.7581498184332935","66.10749561002055"
"B-1423","n-pentadecane","InChI=1S/C15H32/c1-3-5-7-9-11-13-15-14-12-10-8-6-4-2/h3-15H2,1-2H3","YCOZIPAWZNQLMR-UHFFFAOYSA-N","CCCCCCCCCCCCCCC","-9.4464","0.0","1","G1","212.42099999999994","6.097500000000006","71.36900000000007","15.0","0.0","0.0","0.0","12.0","92.0","0.0","0.0","0.0","0.0","0.0","97.84844062938208","2.8079257388805243","84.21143267166839"
"B-1424","1-pentadecanol","InChI=1S/C15H32O/c1-2-3-4-5-6-7-8-9-10-11-12-13-14-15-16/h16H,2-15H2,1H3","REIUXOLGHVXAEO-UHFFFAOYSA-N","CCCCCCCCCCCCCCCO","-6.3476","0.031200000000000117","2","G3","228.41999999999993","5.069900000000006","72.78080000000006","16.0","1.0","1.0","1.0","13.0","98.0","0.0","0.0","0.0","0.0","20.23","102.6426743815781","2.828262412638549","98.00257888348511"
"B-1425","hexacosane","InChI=1S/C26H54/c1-3-5-7-9-11-13-15-17-19-21-23-25-26-24-22-20-18-16-14-12-10-8-6-4-2/h3-26H2,1-2H3","HMSWAIKSFDFLKN-UHFFFAOYSA-N","CCCCCCCCCCCCCCCCCCCCCCCCCC","-8.3339","0.00804999999999989","2","G3","366.7180000000002","10.388599999999993","122.15600000000012","26.0","0.0","0.0","0.0","23.0","158.0","0.0","0.0","0.0","0.0","0.0","167.86280388774483","2.94691201256248","196.07820003461558"
"B-1426","hexatriacontane","InChI=1S/C36H74/c1-3-5-7-9-11-13-15-17-19-21-23-25-27-29-31-33-35-36-34-32-30-28-26-24-22-20-18-16-14-12-10-8-6-4-2/h3-36H2,1-2H3","YDLYQMBWCWFRAI-UHFFFAOYSA-N","CCCCCCCCCCCCCCCCCCCCCCCCCCCCCCCCCCCC","-8.4746","0.0","1","G1","506.9880000000006","14.289599999999968","168.32599999999962","36.0","0.0","0.0","0.0","33.0","218.0","0.0","0.0","0.0","0.0","0.0","231.51222503171093","3.000382126868542","311.94747320502313"
"B-1427","1,1,1,2-tetrachloroethane","InChI=1S/C2H2Cl4/c3-1-2(4,5)6/h1H2","QVLAWKAXOMEXPM-UHFFFAOYSA-N","ClCC(Cl)(Cl)Cl","-2.1955","0.007749999999999924","2","G3","167.85","2.5954000000000006","31.009999999999998","6.0","0.0","0.0","4.0","0.0","38.0","0.0","0.0","0.0","0.0","0.0","56.31725804975285","3.168489872670569","35.30296890880646"
"B-1429","acetic acid, dibromo-","InChI=1S/C2H2Br2O2/c3-1(4)2(5)6/h1H,(H,5,6)","SIEILFNCEFEENQ-UHFFFAOYSA-N","OC(=O)C(Br)Br","0.9861","0.0","1","G1","217.844","1.1869","29.277799999999996","6.0","1.0","1.0","4.0","1.0","36.0","0.0","0.0","0.0","0.0","37.3","51.79504420574866","3.2575861612334887","60.568425030288566"
"B-1430","sulfasomizole","InChI=1S/C10H11N3O2S2/c1-7-6-10(16-12-7)13-17(14,15)9-4-2-8(11)3-5-9/h2-6,13H,11H2,1H3","JVYKJZPZFIUYAB-UHFFFAOYSA-N","Cc1cc(N[S](=O)(=O)c2ccc(N)cc2)sn1","-1.0762","0.0","1","G1","269.351","1.8345199999999997","68.51390000000002","17.0","5.0","2.0","7.0","3.0","90.0","2.0","0.0","0.0","2.0","85.08","103.50506945329685","2.276726283674452","617.2554968564319"
"B-1432","tetramethylurea","InChI=1S/C5H12N2O/c1-6(2)5(8)7(3)4/h1-4H3","AVQQQNCBBIEMEU-UHFFFAOYSA-N","CN(C)C(=O)N(C)C","0.9349","0.0","1","G1","116.16399999999999","0.22960000000000003","32.76999999999998","8.0","1.0","0.0","3.0","0.0","48.0","0.0","0.0","0.0","0.0","23.550000000000004","49.88020892586648","3.65123357893369","78.42945954287093"
"B-1433","tetrachlorophthalic acid","InChI=1S/C8H2Cl4O4/c9-3-1(7(13)14)2(8(15)16)4(10)6(12)5(3)11/h(H,13,14)(H,15,16)","WZHHYIOUKQNLQM-UHFFFAOYSA-N","OC(=O)c1c(Cl)c(Cl)c(Cl)c(Cl)c1C(O)=O","-1.9264","0.0","1","G1","303.9120000000001","3.6966","60.4006","16.0","2.0","2.0","8.0","2.0","86.0","1.0","0.0","0.0","1.0","74.6","109.28586396029642","3.8318799145935873","452.54705704391523"
"B-1434","bilirubin","InChI=1S/C33H36N4O6/c1-7-20-19(6)32(42)37-27(20)14-25-18(5)23(10-12-31(40)41)29(35-25)15-28-22(9-11-30(38)39)17(4)24(34-28)13-26-16(3)21(8-2)33(43)36-26/h7-8,13-14,34-35H,1-2,9-12,15H2,3-6H3,(H,36,43)(H,37,42)(H,38,39)(H,40,41)/b26-13-,27-14-","BPYKTIZUTYGOLE-IFADSCNNSA-N","CC1=C(C=C)/C(NC1=O)=C/c2[nH]c(Cc3[nH]c(\C=C\4NC(=O)C(=C4C)C=C)c(C)c3CCC(O)=O)c(CCC(O)=O)c2C","-4.8127","0.0","1","G1","584.6730000000005","4.531240000000003","163.8123999999998","43.0","4.0","6.0","10.0","12.0","224.0","2.0","0.0","2.0","4.0","164.38","249.21537079912406","1.8045680576138412","1705.9496132769698"