"ID","Name","InChI","InChIKey","SMILES","Solubility","SD","Ocurrences","Group","MolWt","MolLogP","MolMR","HeavyAtomCount","NumHAcceptors","NumHDonors","NumHeteroatoms","NumRotatableBonds","NumValenceElectrons","NumAromaticRings","NumSaturatedRings","NumAliphaticRings","RingCount","TPSA","LabuteASA","BalabanJ","BertzCT"
"B-2473","carbetamide","InChI=1S/C12H16N2O3/c1-3-13-11(15)9(2)17-12(16)14-10-7-5-4-6-8-10/h4-9H,3H2,1-2H3,(H,13,15)(H,14,16)/t9-/m0/s1","AMRQXHFXNZFDCH-VIFPVBQESA-N","CCNC(=O)[C@H](C)OC(=O)Nc1ccccc1","-1.8293","0.0","1","G1","236.27100000000002","1.7596999999999998","64.69140000000003","17.0","3.0","2.0","5.0","4.0","92.0","1.0","0.0","0.0","1.0","67.42999999999999","100.15736960268714","2.419926733388694","378.5969479612245"
"B-2474","phosphonic acid, hexyl-, diethyl ester","InChI=1S/C10H23O3P/c1-4-7-8-9-10-14(11,12-5-2)13-6-3/h4-10H2,1-3H3","VVUJWLDQIIFQHI-UHFFFAOYSA-N","CCCCCC[P](=O)(OCC)OCC","-2.5687","0.0","1","G1","222.26499999999996","3.8328000000000033","59.86750000000005","14.0","3.0","0.0","4.0","9.0","86.0","0.0","0.0","0.0","0.0","35.53","87.71376093276064","3.7767972529836134","160.7500459686256"
"B-2475","2-naphthol, 3-(2-imidazolin-2-yl)-","InChI=1S/C13H12N2O/c16-12-8-10-4-2-1-3-9(10)7-11(12)13-14-5-6-15-13/h1-4,7-8,16H,5-6H2,(H,14,15)","FLXNNWWFGVHTDN-UHFFFAOYSA-N","Oc1cc2ccccc2cc1C3=NCCN3","-3.3015","0.0","1","G1","212.25199999999995","1.8951999999999996","65.01950000000002","16.0","3.0","2.0","3.0","1.0","80.0","2.0","0.0","1.0","3.0","44.620000000000005","93.44148126255695","2.209261722306593","575.1543443266694"
"B-2476","phenol, 2-iodo-4-methyl-","InChI=1S/C7H7IO/c1-5-2-3-7(9)6(8)4-5/h2-4,9H,1H3","JITSLEIKSRKKCZ-UHFFFAOYSA-N","Cc1ccc(O)c(I)c1","-2.4662","0.0","1","G1","234.036","2.3052200000000003","45.560800000000015","9.0","1.0","1.0","2.0","0.0","48.0","1.0","0.0","0.0","1.0","20.23","67.85241710713322","3.1716780304409156","220.15617759993404"
"B-2477","2-propenoic acid, 3-[2-(acetyloxy)phenyl]-, (e)-","InChI=1S/C11H10O4/c1-8(12)15-10-5-3-2-4-9(10)6-7-11(13)14/h2-7H,1H3,(H,13,14)/b7-6+","UXOWQQCLBQBRMQ-VOTSOKGWSA-N","CC(=O)Oc1ccccc1\C=C\C(O)=O","-3.1559","0.0","1","G1","206.19699999999997","1.7097","54.420800000000014","15.0","3.0","1.0","4.0","3.0","78.0","1.0","0.0","0.0","1.0","63.6","86.79733384108619","2.9536555307466617","406.803877923803"
"B-2479","benzoic acid, 3-chloro-4-hydroxy-, ethyl ester","InChI=1S/C9H9ClO3/c1-2-13-9(12)6-3-4-8(11)7(10)5-6/h3-5,11H,2H2,1H3","QBOWIPYEPOVPGR-UHFFFAOYSA-N","CCOC(=O)c1ccc(O)c(Cl)c1","-3.2232","0.0","1","G1","200.62099999999998","2.2222999999999997","49.073300000000025","13.0","3.0","1.0","4.0","2.0","70.0","1.0","0.0","0.0","1.0","46.53","80.8987967713151","2.9029492111309567","322.6358947688087"
"B-2480","l-glutamic acid, n-l-leucyl-","InChI=1S/C11H20N2O5/c1-6(2)5-7(12)10(16)13-8(11(17)18)3-4-9(14)15/h6-8H,3-5,12H2,1-2H3,(H,13,16)(H,14,15)(H,17,18)/t7-,8-/m0/s1","NFNVDJGXRFEYTK-YUMQZZPRSA-N","CC(C)C[C@H](N)C(=O)N[C@@H](CCC(O)=O)C(O)=O","-0.8969","0.0","1","G1","260.28999999999996","-0.2059999999999989","63.86670000000002","18.0","4.0","4.0","7.0","8.0","104.0","0.0","0.0","0.0","0.0","129.72000000000003","105.35145885693973","4.3528785501659","316.5554329905009"
"B-2481","butanamide, n-methyl-n-nitroso-","InChI=1S/C5H10N2O2/c1-3-4-5(8)7(2)6-9/h3-4H2,1-2H3","XPQQMTYSKBRMIY-UHFFFAOYSA-N","CCCC(=O)N(C)N=O","-1.5347","0.0","1","G1","130.147","0.9263","33.47299999999999","9.0","3.0","0.0","4.0","3.0","52.0","0.0","0.0","0.0","0.0","49.74","53.78524326012857","3.583388067911339","113.5256223561569"
"B-2482","mecoprop-p","InChI=1S/C10H11ClO3/c1-6-5-8(11)3-4-9(6)14-7(2)10(12)13/h3-5,7H,1-2H3,(H,12,13)/t7-/m1/s1","WNTGYJSOUMFZEP-SSDOTTSWSA-N","C[C@@H](Oc1ccc(Cl)cc1C)C(O)=O","-2.3972","0.0","1","G1","214.64799999999997","2.5003199999999994","53.91480000000002","14.0","2.0","1.0","4.0","3.0","76.0","1.0","0.0","0.0","1.0","46.53","87.26373888571173","2.817664884623791","349.2203893594689"
"B-2483","2-propenamide, 2-chloro-","InChI=1S/C3H4ClNO/c1-2(4)3(5)6/h1H2,(H2,5,6)","YBXYCBGDIALKAK-UHFFFAOYSA-N","NC(=O)C(Cl)=C","-0.2104","0.0","1","G1","105.524","0.22420000000000007","24.187399999999997","6.0","1.0","1.0","3.0","1.0","34.0","0.0","0.0","0.0","0.0","43.09","40.58421124837666","3.5677034550432034","76.79398751947123"
"B-2484","cyclopropyl vinyl ether","InChI=1S/C5H8O/c1-2-6-5-3-4-5/h2,5H,1,3-4H2","XRCVFFQSIMHODB-UHFFFAOYSA-N","C=COC1CC1","-1.1001","0.0","1","G1","84.11800000000001","1.3089","24.30399999999999","6.0","1.0","0.0","1.0","2.0","34.0","0.0","1.0","1.0","1.0","9.23","37.617130529209376","2.0042659400935183","54.95878455585175"
"B-2485","hydantoin, 5-methyl-5-(2-piperidinoethyl)-","InChI=1S/C11H19N3O2/c1-11(9(15)12-10(16)13-11)5-8-14-6-3-2-4-7-14/h2-8H2,1H3,(H2,12,13,15,16)","PXXUBGGGONGQBX-UHFFFAOYSA-N","CC1(CCN2CCCCC2)NC(=O)NC1=O","-0.8213","0.0","1","G1","225.292","0.4605","59.98740000000004","16.0","3.0","2.0","5.0","3.0","90.0","0.0","2.0","2.0","2.0","61.440000000000005","95.55961210224417","1.8399706889515919","299.6048004293374"
"B-2486","à-d-glucofuranose, 1,2:5,6-bis-o-(1-methylethyli","InChI=1S/C14H22O7/c1-7(15)17-10-9(8-6-16-13(2,3)19-8)18-12-11(10)20-14(4,5)21-12/h8-12H,6H2,1-5H3/t8-,9-,10+,11-,12-/m1/s1","QZKDRLZSJSWQPS-RMPHRYRLSA-N","CC(=O)O[C@H]1[C@H](O[C@@H]2OC(C)(C)O[C@H]12)[C@H]3COC(C)(C)O3","-1.5229","0.0","1","G1","302.32300000000004","0.9459999999999993","69.15600000000005","21.0","7.0","0.0","7.0","2.0","120.0","0.0","3.0","3.0","3.0","72.45000000000002","123.30879853148278","1.7669203352360854","433.0384601061334"
"B-2487","2-thiazolecarboxylic acid, hydrazide","InChI=1S/C4H5N3OS/c5-7-3(8)4-6-1-2-9-4/h1-2H,5H2,(H,7,8)","OPJYIWMGTSMLKB-UHFFFAOYSA-N","NNC(=O)c1sccn1","-0.6787","0.0","1","G1","143.17100000000002","-0.25340000000000024","33.76760000000001","9.0","4.0","2.0","5.0","1.0","48.0","1.0","0.0","0.0","1.0","68.00999999999999","55.677767486151076","2.770351770759627","195.58748160245514"
"B-2488","methomyl","InChI=1S/C5H10N2O2S/c1-4(10-3)7-9-5(8)6-2/h1-3H3,(H,6,8)/b7-4+","UHXUZOCRWCRNSJ-QPJJXVBHSA-N","CNC(=O)O\N=C(/C)SC","-0.4466","0.0","1","G1","162.214","1.0388","42.16470000000002","10.0","4.0","1.0","5.0","1.0","58.0","0.0","0.0","0.0","0.0","50.69","63.99642000927801","3.608044380766722","146.58337707694835"
"B-2489","3,4,5-trichloroveratrole","InChI=1S/C8H7Cl3O2/c1-12-5-3-4(9)6(10)7(11)8(5)13-2/h3H,1-2H3","VKNITLPENCJQOP-UHFFFAOYSA-N","COc1cc(Cl)c(Cl)c(Cl)c1OC","-4.3701","0.0","1","G1","241.501","3.6640000000000015","54.57600000000002","13.0","2.0","0.0","5.0","2.0","72.0","1.0","0.0","0.0","1.0","18.46","91.29817648794896","3.387372269116415","325.65544477746255"
"B-2490","4-chloroguaiacol","InChI=1S/C7H7ClO2/c1-10-7-4-5(8)2-3-6(7)9/h2-4,9H,1H3","FVZQMMMRFNURSH-UHFFFAOYSA-N","COc1cc(Cl)ccc1O","-1.5013","0.0","1","G1","158.584","2.0542000000000002","39.66880000000002","10.0","2.0","1.0","3.0","1.0","54.0","1.0","0.0","0.0","1.0","29.46","64.00739044247814","3.090683646458197","235.04775799182192"
"B-2491","benzenesulfonamide, 4-amino-n-1,3,4-thiadiazol-2","InChI=1S/C8H8N4O2S2/c9-6-1-3-7(4-2-6)16(13,14)12-8-11-10-5-15-8/h1-5H,9H2,(H,11,12)","ATEAASNFYTUARU-UHFFFAOYSA-N","Nc1ccc(cc1)[S](=O)(=O)Nc2scnn2","-2.8684","0.0","1","G1","256.312","0.9211","61.57190000000001","16.0","6.0","2.0","8.0","3.0","84.0","2.0","0.0","0.0","2.0","97.97","96.18713889930606","2.2889130817194454","562.5955957591879"
"B-2492","2-furanacetic acid, tetrahydro-2-methyl-5-oxo-,","InChI=1S/C9H14O4/c1-3-12-8(11)6-9(2)5-4-7(10)13-9/h3-6H2,1-2H3","XPHDAEADNYTVAU-UHFFFAOYSA-N","CCOC(=O)CC1(C)CCC(=O)O1","-0.7472","0.0","1","G1","186.20699999999997","1.0353","44.98100000000002","13.0","4.0","0.0","4.0","3.0","74.0","0.0","1.0","1.0","1.0","52.60000000000001","77.20309144857448","2.4312019047262803","223.65459135746892"
"B-2493","succinic acid, 2-ethyl-3-phenyl-","InChI=1S/C12H14O4/c1-2-9(11(13)14)10(12(15)16)8-6-4-3-5-7-8/h3-7,9-10H,2H2,1H3,(H,13,14)(H,15,16)","AAQWYJPJRWOQEV-UHFFFAOYSA-N","CCC(C(C(O)=O)c1ccccc1)C(O)=O","-2.3256","0.0","1","G1","222.24","1.9656","58.23560000000003","16.0","2.0","2.0","4.0","5.0","86.0","1.0","0.0","0.0","1.0","74.6","93.53256751035619","3.0886506543233865","371.8649671621322"
"B-2494","benzamide, 2,4-dichloro-n-hydroxy-n-phenyl-","InChI=1S/C13H9Cl2NO2/c14-9-6-7-11(12(15)8-9)13(17)16(18)10-4-2-1-3-5-10/h1-8,18H","HUOHOGDVFDYSTQ-UHFFFAOYSA-N","ON(c1ccccc1)C(=O)c2ccc(Cl)cc2Cl","-3.6723","0.0","1","G1","282.126","4.029400000000002","71.50000000000001","18.0","2.0","1.0","5.0","2.0","92.0","2.0","0.0","0.0","2.0","40.54","114.12959991564206","2.3157269710905455","572.458856744229"
"B-2495","pteridine, 2-(methylthio)-","InChI=1S/C7H6N4S/c1-12-7-10-4-5-6(11-7)9-3-2-8-5/h2-4H,1H3","LNTLWEUAGAFRJR-UHFFFAOYSA-N","CSc1ncc2nccnc2n1","-1.7561","0.30194999999999994","2","G3","178.22","1.1416999999999997","46.90900000000002","12.0","5.0","0.0","5.0","1.0","60.0","2.0","0.0","0.0","2.0","51.56","73.47971171478005","2.673996462761564","403.2834383297276"
"B-2496","barbituric acid, 5-bromo-5-isopropyl-","InChI=1S/C7H9BrN2O3/c1-3(2)7(8)4(11)9-6(13)10-5(7)12/h3H,1-2H3,(H2,9,10,11,12,13)","VDWQDWRNMYXLOV-UHFFFAOYSA-N","CC(C)C1(Br)C(=O)NC(=O)NC1=O","-2.2088","0.0","1","G1","249.064","0.1421","48.177400000000006","13.0","3.0","2.0","6.0","1.0","72.0","0.0","1.0","1.0","1.0","75.27000000000001","83.37491083366872","3.030240417314884","267.46224209666667"
"B-2497","1,4-benzenedisulfonamide","InChI=1S/C6H8N2O4S2/c7-13(9,10)5-1-2-6(4-3-5)14(8,11)12/h1-4H,(H2,7,9,10)(H2,8,11,12)","WOUBWJAJSXAOIV-UHFFFAOYSA-N","N[S](=O)(=O)c1ccc(cc1)[S](N)(=O)=O","-2.5283","0.0","1","G1","236.27399999999997","-1.0185999999999997","49.18840000000001","14.0","4.0","2.0","8.0","2.0","78.0","1.0","0.0","0.0","1.0","120.32","81.63273629835254","3.2768036092509747","478.69916585523885"
"B-2498","barbituric acid,5,5-dibutyl-","InChI=1S/C12H20N2O3/c1-3-5-7-12(8-6-4-2)9(15)13-11(17)14-10(12)16/h3-8H2,1-2H3,(H2,13,14,15,16,17)","KXOZJFGEGGNJDX-UHFFFAOYSA-N","CCCCC1(CCCC)C(=O)NC(=O)NC1=O","-2.8756","0.0","1","G1","240.303","1.7191999999999998","63.164400000000036","17.0","3.0","2.0","5.0","6.0","96.0","0.0","1.0","1.0","1.0","75.27000000000001","101.33207380001042","2.88661545790744","295.7124307904384"
"B-2499","8-cinnolinol","InChI=1S/C8H6N2O/c11-7-3-1-2-6-4-5-9-10-8(6)7/h1-5,11H","UCYUOFIVFHOUTP-UHFFFAOYSA-N","Oc1cccc2ccnnc12","-2.4089","0.0","1","G1","146.14899999999997","1.3353999999999997","41.20280000000002","11.0","3.0","1.0","3.0","0.0","54.0","2.0","0.0","0.0","2.0","46.010000000000005","63.31505093372592","2.9131611636048604","381.2537713475522"
"B-2500","8-cinnolinol, 4-methyl-","InChI=1S/C9H8N2O/c1-6-5-10-11-9-7(6)3-2-4-8(9)12/h2-5,12H,1H3","OLTFEHQRFCVOLY-UHFFFAOYSA-N","Cc1cnnc2c(O)cccc12","-2.6783","0.0","1","G1","160.176","1.6438199999999998","45.93980000000003","12.0","3.0","1.0","3.0","0.0","60.0","2.0","0.0","0.0","2.0","46.010000000000005","69.67999304812253","2.9433728520613918","384.5480911891211"
"B-2501","5-quinoxalinol","InChI=1S/C8H6N2O/c11-7-3-1-2-6-8(7)10-5-4-9-6/h1-5,11H","ZUQDDQFXSNXEOD-UHFFFAOYSA-N","Oc1cccc2nccnc12","-1.3468","0.0","1","G1","146.14899999999997","1.3354","41.20280000000002","11.0","3.0","1.0","3.0","0.0","54.0","2.0","0.0","0.0","2.0","46.010000000000005","63.3465973653212","2.9131611636048604","381.2537713475522"
"B-2502","1,6-naphthyridin-8-ol","InChI=1S/C8H6N2O/c11-7-5-9-4-6-2-1-3-10-8(6)7/h1-5,11H","WHFQWQIDXMOZBD-UHFFFAOYSA-N","Oc1cncc2cccnc12","-1.6576","0.0","1","G1","146.14899999999994","1.3354","41.20280000000002","11.0","3.0","1.0","3.0","0.0","54.0","2.0","0.0","0.0","2.0","46.010000000000005","63.3465973653212","2.9131611636048604","381.2537713475522"
"B-2503","glycine, n-[n-(n-carbamoylglycyl)glycyl]-","InChI=1S/C7H12N4O5/c8-7(16)11-2-5(13)9-1-4(12)10-3-6(14)15/h1-3H2,(H,9,13)(H,10,12)(H,14,15)(H3,8,11,16)","GKOORVATHBVNBA-UHFFFAOYSA-N","NC(=O)NCC(=O)NCC(=O)NCC(O)=O","-1.3505","0.0","1","G1","232.19599999999997","-3.028299999999999","51.2413","16.0","4.0","5.0","9.0","6.0","90.0","0.0","0.0","0.0","0.0","150.61999999999998","90.35870311441712","3.6251656523165843","273.1523108076711"
"B-2504","butanoic acid, 2-(ethylamino)-","InChI=1S/C6H13NO2/c1-3-5(6(8)9)7-4-2/h5,7H,3-4H2,1-2H3,(H,8,9)","PRXQQZUWYABUCX-UHFFFAOYSA-N","CCNC(CC)C(O)=O","-0.4189","0.0","1","G1","131.17499999999998","0.4591","35.39149999999999","9.0","2.0","2.0","3.0","4.0","54.0","0.0","0.0","0.0","0.0","49.33","55.0695796356604","3.541168581230058","93.05865002596164"
"B-2505","benzeneacetic acid, .alpha.-hydroxy-, (s)-","InChI=1S/C8H8O3/c9-7(8(10)11)6-4-2-1-3-5-6/h1-5,7,9H,(H,10,11)/t7-/m0/s1","IWYDHOAUDWTVEP-ZETCQYMHSA-N","O[C@H](C(O)=O)c1ccccc1","0.1592","0.0","1","G1","152.149","0.8046","39.03760000000002","11.0","2.0","2.0","3.0","2.0","58.0","1.0","0.0","0.0","1.0","57.53","63.91127695272596","2.851177890164404","242.77390023702043"
"B-2506","glycine, n-[n-(aminocarbonyl)glycyl]-","InChI=1S/C5H9N3O4/c6-5(12)8-1-3(9)7-2-4(10)11/h1-2H2,(H,7,9)(H,10,11)(H3,6,8,12)","BMRYPQYWSJESHA-UHFFFAOYSA-N","NC(=O)NCC(=O)NCC(O)=O","-0.8996","0.0","1","G1","175.14399999999998","-2.1445","38.23160000000001","12.0","3.0","4.0","7.0","4.0","68.0","0.0","0.0","0.0","0.0","121.52000000000001","67.91743460197209","3.467235170058121","182.87001325209468"
"B-2507","isopropyl t-butyl ether","InChI=1S/C7H16O/c1-6(2)8-7(3,4)5/h6H,1-5H3","HNFSPSWQNZVCTB-UHFFFAOYSA-N","CC(C)OC(C)(C)C","-2.3662","0.0","1","G1","116.204","2.2099","35.97399999999999","8.0","1.0","0.0","1.0","1.0","50.0","0.0","0.0","0.0","0.0","9.23","52.04244894371607","3.388924101358251","59.277302439017085"
"B-2508","3,5-dinitro-l-tyrosine","InChI=1S/C9H9N3O7/c10-5(9(14)15)1-4-2-6(11(16)17)8(13)7(3-4)12(18)19/h2-3,5,13H,1,10H2,(H,14,15)/t5-/m0/s1","SAZOSDSFLRXREA-YFKPBYRVSA-N","N[C@@H](Cc1cc(c(O)c(c1)[N+]([O-])=O)[N+]([O-])=O)C(O)=O","-1.5125","0.0","1","G1","271.185","0.16299999999999987","60.730799999999995","19.0","7.0","3.0","10.0","5.0","102.0","1.0","0.0","0.0","1.0","169.82999999999998","104.9220612091349","3.3042723212074687","521.739372375226"
"B-2509","acetone, 4-(p-nitrophenyl)semicarbazone","InChI=1S/C10H12N4O3/c1-7(2)12-13-10(15)11-8-3-5-9(6-4-8)14(16)17/h3-6H,1-2H3,(H2,11,13,15)","XBOWKFFJMDFKOW-UHFFFAOYSA-N","CC(C)=NNC(=O)Nc1ccc(cc1)[N+]([O-])=O","-3.5952","0.0","1","G1","236.231","2.1121","64.03380000000001","17.0","4.0","2.0","7.0","3.0","90.0","1.0","0.0","0.0","1.0","96.63","97.67085227293815","2.6020074863604292","449.1237439851267"
"B-2510","1,3,5-benzenetricarboxylic acid, 2-methoxy-","InChI=1S/C10H8O7/c1-17-7-5(9(13)14)2-4(8(11)12)3-6(7)10(15)16/h2-3H,1H3,(H,11,12)(H,13,14)(H,15,16)","VPHWGVPHJXKPOK-UHFFFAOYSA-N","COc1c(cc(cc1C(O)=O)C(O)=O)C(O)=O","-1.5354","0.0","1","G1","240.16699999999997","0.7898000000000001","53.8719","17.0","4.0","3.0","7.0","4.0","90.0","1.0","0.0","0.0","1.0","121.13000000000002","94.87198436330962","3.625430618211917","468.37103174272534"
"B-2511","1(3h)-isobenzofuranone, 3-ethyl-","InChI=1S/C10H10O2/c1-2-9-7-5-3-4-6-8(7)10(11)12-9/h3-6,9H,2H2,1H3","VMTZKGPXYYJUAR-UHFFFAOYSA-N","CCC1OC(=O)c2ccccc12","-1.7469999999999999","0.0","1","G1","162.188","2.3081000000000005","44.88950000000003","12.0","2.0","0.0","2.0","1.0","62.0","1.0","0.0","1.0","2.0","26.3","71.1604077531048","2.4973727551145557","317.36954751006243"
"B-2512","metolazone","InChI=1S/C16H16ClN3O3S/c1-9-5-3-4-6-14(9)20-10(2)19-13-8-12(17)15(24(18,22)23)7-11(13)16(20)21/h3-8,10,19H,1-2H3,(H2,18,22,23)","AQCHWTWZEMGIFD-UHFFFAOYSA-N","CC1Nc2cc(Cl)c(cc2C(=O)N1c3ccccc3C)[S](N)(=O)=O","-3.783","0.03649999999999998","2","G3","365.8420000000001","2.7141199999999994","93.89840000000002","24.0","4.0","2.0","8.0","2.0","126.0","2.0","0.0","1.0","3.0","92.5","144.8175853997829","2.167413797290446","943.5789765253189"
"B-2513","1,2,4-triazin-3-amine, 5,6-dimethyl-","InChI=1S/C5H8N4/c1-3-4(2)8-9-5(6)7-3/h1-2H3,(H2,6,7,9)","UIKGLXJNZXSPGV-UHFFFAOYSA-N","Cc1nnc(N)nc1C","-1.0939","0.0","1","G1","124.147","0.07063999999999965","33.7134","9.0","4.0","1.0","4.0","0.0","48.0","1.0","0.0","0.0","1.0","64.69","53.12857555654716","3.171678030440915","220.19802157990046"
"B-2514","bensultap","InChI=1S/C17H21NO4S4/c1-18(2)15(13-23-25(19,20)16-9-5-3-6-10-16)14-24-26(21,22)17-11-7-4-8-12-17/h3-12,15H,13-14H2,1-2H3","YFXPPSKYMBTNAV-UHFFFAOYSA-N","CN(C)C(CS[S](=O)(=O)c1ccccc1)CS[S](=O)(=O)c2ccccc2","-5.76","0.0","1","G1","431.62600000000015","3.160800000000002","109.64660000000003","26.0","7.0","0.0","9.0","9.0","142.0","2.0","0.0","0.0","2.0","71.52000000000001","162.36998255475035","2.014935593788809","824.7937658914047"
"B-2515","butanedinitrile, ethyl-","InChI=1S/C6H8N2/c1-2-6(5-8)3-4-7/h6H,2-3H2,1H3","GDCJAPJJFZWILF-UHFFFAOYSA-N","CCC(CC#N)C#N","-0.6916","0.0","1","G1","108.144","1.44986","29.623999999999988","8.0","2.0","0.0","2.0","2.0","42.0","0.0","0.0","0.0","0.0","47.58","49.34912096275001","3.4499430844722583","126.44441158953074"
"B-2516","amicetin","InChI=1S/C29H42N6O9/c1-15-19(44-26-24(38)23(37)22(34(4)5)16(2)43-26)10-11-21(42-15)35-13-12-20(33-28(35)41)32-25(39)17-6-8-18(9-7-17)31-27(40)29(3,30)14-36/h6-9,12-13,15-16,19,21-24,26,36-38H,10-11,14,30H2,1-5H3,(H,31,40)(H,32,33,39,41)","HDNVYHWHCVTDIV-UHFFFAOYSA-N","CC1OC(CCC1OC2OC(C)C(C(O)C2O)N(C)C)N3C=CC(=NC3=O)NC(=O)c4ccc(NC(=O)C(C)(N)CO)cc4","-2.4904","0.0","1","G1","618.6880000000001","-0.37669999999999493","158.71469999999985","44.0","13.0","6.0","15.0","9.0","242.0","2.0","2.0","2.0","4.0","210.73","254.46735462019848","1.3237762849841919","1367.8466112412261"
"B-2517","1,2-benzenedicarboxylic acid, mono(2-hydroxyethy","InChI=1S/C10H10O5/c11-5-6-15-10(14)8-4-2-1-3-7(8)9(12)13/h1-4,11H,5-6H2,(H,12,13)","NTINFTOOVNKGIU-UHFFFAOYSA-N","OCCOC(=O)c1ccccc1C(O)=O","-1.4825","0.0","1","G1","210.18499999999997","0.5339","50.76960000000002","15.0","4.0","2.0","5.0","4.0","80.0","1.0","0.0","0.0","1.0","83.83000000000001","85.91622851106985","2.9229450292375327","371.83042670586934"
"B-2520","phenol, 4-amino-2,6-dinitro-","InChI=1S/C6H5N3O5/c7-3-1-4(8(11)12)6(10)5(2-3)9(13)14/h1-2,10H,7H2","TTXPIURLJOPGTE-UHFFFAOYSA-N","Nc1cc(c(O)c(c1)[N+]([O-])=O)[N+]([O-])=O","-2.3853","0.0","1","G1","199.12199999999999","0.7907999999999997","45.827999999999996","14.0","6.0","2.0","8.0","2.0","74.0","1.0","0.0","0.0","1.0","132.53","76.87147901370528","3.472584005406869","380.92315771823786"
"B-2521","fentiazac","InChI=1S/C17H12ClNO2S/c18-13-8-6-11(7-9-13)16-14(10-15(20)21)22-17(19-16)12-4-2-1-3-5-12/h1-9H,10H2,(H,20,21)","JIEKMACRVQTPRC-UHFFFAOYSA-N","OC(=O)Cc1sc(nc1c2ccc(Cl)cc2)c3ccccc3","-4.9644","0.0","1","G1","329.80800000000005","4.757600000000003","89.33580000000002","22.0","3.0","1.0","5.0","4.0","110.0","3.0","0.0","0.0","3.0","50.19","136.39450909089769","2.0881279260188315","797.2860773381176"
"B-2522","1-pentene, 5-isothiocyanato-","InChI=1S/C6H9NS/c1-2-3-4-5-7-6-8/h2H,1,3-5H2","DBISBKDNOKIADM-UHFFFAOYSA-N","C=CCCCN=C=S","-2.9004","0.0","1","G1","127.21199999999999","2.0554","39.32400000000001","8.0","2.0","0.0","2.0","4.0","44.0","0.0","0.0","0.0","0.0","12.36","55.12846130069333","2.925623031243759","103.09616281328599"
"B-2523","[1,1'-biphenyl]-3-ol, 4-nitro-","InChI=1S/C12H9NO3/c14-12-8-10(6-7-11(12)13(15)16)9-4-2-1-3-5-9/h1-8,14H","HYPKGPVDQYUOSV-UHFFFAOYSA-N","Oc1cc(ccc1[N+]([O-])=O)c2ccccc2","-3.8557","0.0","1","G1","215.208","2.9674000000000014","60.19720000000003","16.0","3.0","1.0","4.0","2.0","80.0","2.0","0.0","0.0","2.0","63.37","91.93570680025682","2.464853287754259","523.0420115762224"
"B-2524","benzaldehyde, 4-hydroxy-3-methoxy-2-methyl-","InChI=1S/C9H10O3/c1-6-7(5-10)3-4-8(11)9(6)12-2/h3-5,11H,1-2H3","NHXMRQITQSBVLJ-UHFFFAOYSA-N","COc1c(C)c(C=O)ccc1O","-1.3755","0.0","1","G1","166.176","1.5217199999999997","44.783300000000025","12.0","3.0","1.0","3.0","2.0","64.0","1.0","0.0","0.0","1.0","46.53","70.59553054443344","3.330537498737434","304.8871119487944"