"ID","Name","InChI","InChIKey","SMILES","Solubility","SD","Ocurrences","Group","MolWt","MolLogP","MolMR","HeavyAtomCount","NumHAcceptors","NumHDonors","NumHeteroatoms","NumRotatableBonds","NumValenceElectrons","NumAromaticRings","NumSaturatedRings","NumAliphaticRings","RingCount","TPSA","LabuteASA","BalabanJ","BertzCT"
"B-1626","peruvoside","InChI=1S/C30H44O9/c1-16-24(33)26(36-3)25(34)27(38-16)39-19-6-10-29(15-31)18(13-19)4-5-22-21(29)7-9-28(2)20(8-11-30(22,28)35)17-12-23(32)37-14-17/h12,15-16,18-22,24-27,33-35H,4-11,13-14H2,1-3H3/t16?,18-,19+,20-,21?,22?,24-,25?,26?,27-,28-,29-,30+/m1/s1","PMTSPAGBAFCORP-DGORKHCUSA-N","COC1[C@H](O)C(C)O[C@H](O[C@H]2CC[C@@]3(C=O)[C@H](CCC4C3CC[C@]5(C)[C@H](CC[C@]45O)C6=CC(=O)OC6)C2)C1O","-3.1373","0.0","1","G1","548.6730000000005","2.2891999999999997","138.12740000000002","39.0","9.0","3.0","9.0","5.0","218.0","0.0","5.0","6.0","6.0","131.75000000000003","229.7579087666746","1.1836244795233528","1014.3920018663739"
"B-1628","butanedioic acid, 2,3-diethyl-","InChI=1S/C8H14O4/c1-3-5(7(9)10)6(4-2)8(11)12/h5-6H,3-4H2,1-2H3,(H,9,10)(H,11,12)","KJXMXCRSMLOXBM-UHFFFAOYSA-N","CCC(C(CC)C(O)=O)C(O)=O","-0.8608","0.29745","2","G3","174.196","1.208","42.8336","12.0","2.0","2.0","4.0","5.0","70.0","0.0","0.0","0.0","0.0","74.6","71.20535753308536","4.437883201238692","155.89667380414838"
"B-1629","3-hydroxy-aspartic acid","InChI=1S/C4H7NO5/c5-1(3(7)8)2(6)4(9)10/h1-2,6H,5H2,(H,7,8)(H,9,10)/t1-,2+/m0/s1","YYLQUHNPNCGKJQ-NHYDCYSISA-N","N[C@@H]([C@@H](O)C(O)=O)C(O)=O","-0.8271","0.0","1","G1","149.102","-2.1562000000000006","29.2538","10.0","4.0","4.0","6.0","3.0","58.0","0.0","0.0","0.0","0.0","120.85000000000002","55.87971352470765","4.069511908932011","137.72694052636007"
"B-1630","urea, tetraethyl-","InChI=1S/C9H20N2O/c1-5-10(6-2)9(12)11(7-3)8-4/h5-8H2,1-4H3","UWHSPZZUAYSGTB-UHFFFAOYSA-N","CCN(CC)C(=O)N(CC)CC","-0.6341","0.0","1","G1","172.27199999999996","1.79","51.238000000000035","12.0","1.0","0.0","3.0","4.0","72.0","0.0","0.0","0.0","0.0","23.550000000000004","75.33997738345292","4.12243352441181","114.49022499567306"
"B-1631","l-leucine, n-acetyl-","InChI=1S/C8H15NO3/c1-5(2)4-7(8(11)12)9-6(3)10/h5,7H,4H2,1-3H3,(H,9,10)(H,11,12)/t7-/m0/s1","WXNXCEHXYPACJF-ZETCQYMHSA-N","CC(C)C[C@H](NC(C)=O)C(O)=O","-1.3301","0.0","1","G1","173.212","0.6218000000000001","44.69550000000001","12.0","2.0","2.0","4.0","4.0","70.0","0.0","0.0","0.0","0.0","66.4","71.9609859644974","4.044711483745026","177.1417863019849"
"B-1633","2,5-dihydroxybenzaldehyde","InChI=1S/C7H6O3/c8-4-5-3-6(9)1-2-7(5)10/h1-4,9-10H","CLFRCXCBWIQVRN-UHFFFAOYSA-N","Oc1ccc(O)c(C=O)c1","-1.0004","0.0","1","G1","138.12199999999999","0.9103000000000001","35.1591","10.0","3.0","2.0","3.0","1.0","52.0","1.0","0.0","0.0","1.0","57.53","57.54633483832936","3.211310929132047","255.02817392215357"
"B-1634","tranexamic acid","InChI=1S/C8H15NO2/c9-5-6-1-3-7(4-2-6)8(10)11/h6-7H,1-5,9H2,(H,10,11)","GYDJEQRTZSCIOI-UHFFFAOYSA-N","NCC1CCC(CC1)C(O)=O","0.0255","0.0","1","G1","157.213","0.8361000000000001","42.13820000000001","11.0","2.0","2.0","3.0","2.0","64.0","0.0","1.0","1.0","1.0","63.32","66.58366122432906","2.297820229194632","139.0274844075218"
"B-1635","2,4-dimethylquinoline","InChI=1S/C11H11N/c1-8-7-9(2)12-11-6-4-3-5-10(8)11/h3-7H,1-2H3","ZTNANFDSJRRZRJ-UHFFFAOYSA-N","Cc1cc(C)c2ccccc2n1","-1.9424","0.0","1","G1","157.21599999999998","2.8516400000000006","51.21700000000003","12.0","1.0","0.0","1.0","0.0","60.0","2.0","0.0","0.0","2.0","12.89","72.06259986097189","2.8920650451735157","418.2736683970917"
"B-1637","dl-alanine, n-benzoyl-","InChI=1S/C10H11NO3/c1-7(10(13)14)11-9(12)8-5-3-2-4-6-8/h2-7H,1H3,(H,11,12)(H,13,14)","UAQVHNZEONHPQG-UHFFFAOYSA-N","CC(NC(=O)c1ccccc1)C(O)=O","-1.6839","0.0","1","G1","193.20199999999997","0.8895","51.00600000000002","14.0","2.0","2.0","4.0","3.0","74.0","1.0","0.0","0.0","1.0","66.4","81.558311712975","2.641954104458228","334.4801643637959"
"B-1638","methyl n-benzoglycine","InChI=1S/C10H11NO3/c1-14-9(12)7-11-10(13)8-5-3-2-4-6-8/h2-6H,7H2,1H3,(H,11,13)","XTKVNQKOTKPCKM-UHFFFAOYSA-N","COC(=O)CNC(=O)c1ccccc1","-1.0556","0.0","1","G1","193.20200000000003","0.5893999999999995","50.791200000000025","14.0","3.0","1.0","4.0","3.0","74.0","1.0","0.0","0.0","1.0","55.4","81.87762319028586","2.4770888710720005","321.3988126104432"
"B-1639","10h-phenothiazine, 10-methyl-","InChI=1S/C13H11NS/c1-14-10-6-2-4-8-12(10)15-13-9-5-3-7-11(13)14/h2-9H,1H3","QXBUYALKJGBACG-UHFFFAOYSA-N","CN1c2ccccc2Sc3ccccc13","-5.5934","0.0","1","G1","213.30499999999998","3.919100000000002","65.07000000000004","15.0","2.0","0.0","2.0","0.0","74.0","2.0","0.0","1.0","3.0","3.24","93.73055198199701","2.19639342717164","461.8940690888921"
"B-1641","benzoic acid, 4-hydroxy, octyl ester","InChI=1S/C15H22O3/c1-2-3-4-5-6-7-12-18-15(17)13-8-10-14(16)11-9-13/h8-11,16H,2-7,12H2,1H3","RIKCMEDSBFQFAL-UHFFFAOYSA-N","CCCCCCCCOC(=O)c1ccc(O)cc1","-4.2224","0.0","1","G1","250.33800000000002","3.909500000000003","71.76530000000004","18.0","3.0","1.0","3.0","8.0","100.0","1.0","0.0","0.0","1.0","46.53","108.78518323081312","2.117836776279736","343.2612760189044"
"B-1642","galaxolide","InChI=1S/C18H26O/c1-11-9-19-10-13-7-15-16(8-14(11)13)18(5,6)12(2)17(15,3)4/h7-8,11-12H,9-10H2,1-6H3","ONKNPOPIGWHAQC-UHFFFAOYSA-N","CC1COCc2cc3c(cc12)C(C)(C)C(C)C3(C)C","-5.1693","0.05386407509409698","5","G5","258.405","4.525200000000004","79.72900000000006","19.0","1.0","0.0","1.0","0.0","104.0","1.0","0.0","2.0","3.0","9.23","116.91259141470466","2.2452818094358897","524.7369751653058"
"B-1643","homidium bromide [ban:inn]","InChI=1S/C21H19N3.BrH/c1-2-24-20-13-16(23)9-11-18(20)17-10-8-15(22)12-19(17)21(24)14-6-4-3-5-7-14;/h3-13,23H,2,22H2,1H3;1H","ZMMJGEGLRURXTF-UHFFFAOYSA-N","[Br-].CC[n+]1c2cc(N)ccc2c3ccc(N)cc3c1c4ccccc4","-1.2948","0.0","1","G1","394.31600000000014","1.1358000000000017","101.5838","25.0","2.0","2.0","4.0","2.0","126.0","4.0","0.0","0.0","4.0","55.92","157.20381359183935","1.8224987868008393e-06","1059.0632211048026"
"B-1644","2-ethylhexyl diphenyl phosphate","InChI=1S/C20H27O4P/c1-3-5-12-18(4-2)17-22-25(21,23-19-13-8-6-9-14-19)24-20-15-10-7-11-16-20/h6-11,13-16,18H,3-5,12,17H2,1-2H3","CGSLYBDCEGBZCG-UHFFFAOYSA-N","CCCCC(CC)CO[P](=O)(Oc1ccccc1)Oc2ccccc2","-5.2804","0.7873224311999998","2","G2","362.40600000000006","6.485500000000006","101.00450000000006","25.0","4.0","0.0","5.0","11.0","136.0","2.0","0.0","0.0","2.0","44.760000000000005","150.29828060372955","2.0892706475281493","599.7604337413646"
"B-1645","3h-pyrazol-3-one, 4,4'-methylenebis[1,2-dihydro-","InChI=1S/C23H24N4O2/c1-16-20(22(28)26(24(16)3)18-11-7-5-8-12-18)15-21-17(2)25(4)27(23(21)29)19-13-9-6-10-14-19/h5-14H,15H2,1-4H3","QATHNKNPUVVKHK-UHFFFAOYSA-N","CN1N(C(=O)C(=C1C)CC2=C(C)N(C)N(C2=O)c3ccccc3)c4ccccc4","-2.9549","0.0","1","G1","388.47100000000006","2.8730400000000014","114.30000000000001","29.0","6.0","0.0","6.0","4.0","148.0","4.0","0.0","0.0","4.0","53.86","168.384850396872","1.8485140835570286","1187.1392575833418"
"B-1646","carminic acid","InChI=1S/C22H20O13/c1-4-8-5(2-6(24)9(4)22(33)34)13(25)10-11(15(8)27)16(28)12(18(30)17(10)29)21-20(32)19(31)14(26)7(3-23)35-21/h2,7,14,19-21,23-24,26,28-32H,3H2,1H3,(H,33,34)/t7-,14-,19+,20-,21-/m1/s1","DGQLVPJVXFOQEV-NGOCYOHBSA-N","Cc1c(C(O)=O)c(O)cc2C(=O)c3c(O)c(O)c([C@H]4O[C@H](CO)[C@@H](O)[C@H](O)[C@H]4O)c(O)c3C(=O)c12","-2.5784","0.0","1","G1","492.3890000000002","-1.1940800000000003","110.82470000000002","35.0","12.0","9.0","13.0","3.0","186.0","2.0","1.0","2.0","4.0","242.50999999999996","194.87247146187087","1.9883907889748258","1295.4759243194196"
"B-1650","tetramethyl decynediol","InChI=1S/C14H26O2/c1-9(2)11(4)12(5)14(16)8-7-10(3)13(6)15/h9-16H,1-6H3","WWPTYZFXUOTSDY-UHFFFAOYSA-N","CC(C)C(C)C(C)C(O)C#CC(C)C(C)O","-2.2756","0.0","1","G1","226.35999999999999","2.2958000000000003","67.79360000000004","16.0","2.0","2.0","2.0","4.0","94.0","0.0","0.0","0.0","0.0","40.46","100.07119141123673","4.397963466161539","247.19629370153046"
"B-1651","carmine","InChI=1S/C22H20O13/c1-4-8-5(2-6(24)9(4)22(33)34)13(25)10-11(15(8)27)16(28)12(18(30)17(10)29)21-20(32)19(31)14(26)7(3-23)35-21/h2,7,14,19-21,23-24,26,28-32H,3H2,1H3,(H,33,34)","DGQLVPJVXFOQEV-UHFFFAOYSA-N","Cc1c(C(O)=O)c(O)cc2C(=O)c3c(O)c(O)c(C4OC(CO)C(O)C(O)C4O)c(O)c3C(=O)c12","-2.5784","0.0","1","G1","492.3890000000002","-1.1940800000000003","110.82470000000002","35.0","12.0","9.0","13.0","3.0","186.0","2.0","1.0","2.0","4.0","242.50999999999996","194.87247146187087","1.9883907889748258","1295.4759243194196"
"B-1652","aloin","InChI=1S/C21H22O9/c22-6-8-4-10-14(21-20(29)19(28)17(26)13(7-23)30-21)9-2-1-3-11(24)15(9)18(27)16(10)12(25)5-8/h1-5,13-14,17,19-26,28-29H,6-7H2/t13-,14-,17-,19+,20-,21+/m1/s1","AFHJQYHRLPMKHU-WEZNYRQKSA-N","OC[C@H]1O[C@H]([C@H](O)[C@@H](O)[C@@H]1O)[C@@H]2c3cccc(O)c3C(=O)c4c(O)cc(CO)cc24","-1.7025","0.0","1","G1","418.39800000000025","-0.8912000000000002","101.1791","30.0","9.0","7.0","9.0","3.0","160.0","2.0","1.0","2.0","4.0","167.91","170.59601764299475","1.9598885325931952","986.6825980598012"
"B-1653","niclosamide ethanolamine salt","InChI=1S/C13H8Cl2N2O4.C2H7NO/c14-7-1-4-12(18)9(5-7)13(19)16-11-3-2-8(17(20)21)6-10(11)15;3-1-2-4/h1-6,18H,(H,16,19);4H,1-3H2","XYCDHXSQODHSLG-UHFFFAOYSA-N","NCCO.Oc1ccc(Cl)cc1C(=O)Nc2ccc(cc2Cl)[N+]([O-])=O","-3.5891","0.0","1","G1","388.20700000000005","2.796900000000001","95.31660000000002","25.0","6.0","4.0","10.0","4.0","134.0","2.0","0.0","0.0","2.0","138.72000000000003","152.48840548359976","7.053570175180047e-07","768.8272024780714"
"B-1654","trifenmorph","InChI=1S/C23H23NO/c1-4-10-20(11-5-1)23(21-12-6-2-7-13-21,22-14-8-3-9-15-22)24-16-18-25-19-17-24/h1-15H,16-19H2","ZJMLMBICUVVJDX-UHFFFAOYSA-N","C1CN(CCO1)C(c2ccccc2)(c3ccccc3)c4ccccc4","-7.2168","0.0","1","G1","329.44300000000004","4.310700000000003","101.60000000000005","25.0","2.0","0.0","2.0","4.0","126.0","3.0","1.0","1.0","4.0","12.47","149.2378498497891","2.0059566373644846","683.4323401314332"
"B-1655","dinoterb","InChI=1S/C10H12N2O5/c1-10(2,3)7-4-6(11(14)15)5-8(9(7)13)12(16)17/h4-5,13H,1-3H3","IIPZYDQGBIWLBU-UHFFFAOYSA-N","CC(C)(C)c1cc(cc(c1O)[N+]([O-])=O)[N+]([O-])=O","-4.7274","0.0","1","G1","240.21499999999997","2.506100000000002","60.115600000000015","17.0","5.0","1.0","7.0","2.0","92.0","1.0","0.0","0.0","1.0","106.50999999999999","96.99135677427898","3.604925771725336","490.2050039218606"
"B-1656","4-(4-nitrophenylazo)phenol","InChI=1S/C12H9N3O3/c16-12-7-3-10(4-8-12)14-13-9-1-5-11(6-2-9)15(17)18/h1-8,13H","ISHCVXKNSGUMPL-UHFFFAOYSA-N","[O-][N+](=O)c1ccc(NN=C2C=CC(=O)C=C2)cc1","-4.796","0.0","1","G1","243.222","2.0578","67.4411","18.0","5.0","1.0","6.0","3.0","90.0","1.0","0.0","1.0","2.0","84.6","102.4658371002256","2.0435102088391304","552.7353612711682"
"B-1657","2-pyridinecarboxamide","InChI=1S/C6H6N2O/c7-6(9)5-3-1-2-4-8-5/h1-4H,(H2,7,9)","IBBMAWULFFBRKK-UHFFFAOYSA-N","NC(=O)c1ccccn1","0.1685","0.0","1","G1","122.12699999999997","0.18049999999999994","32.7549","9.0","2.0","1.0","3.0","1.0","46.0","1.0","0.0","0.0","1.0","55.980000000000004","52.51740601189657","2.981454614041131","207.5576620543373"
"B-1658","heptadecyl alcohol","InChI=1S/C17H36O/c1-2-3-4-5-6-7-8-9-10-11-12-13-14-15-16-17-18/h18H,2-17H2,1H3","GOQYKNQRPGWPLP-UHFFFAOYSA-N","CCCCCCCCCCCCCCCCCO","-7.506","0.0","1","G1","256.4739999999999","5.8501000000000065","82.01480000000006","18.0","1.0","1.0","1.0","15.0","110.0","0.0","0.0","0.0","0.0","20.23","115.37255861037133","2.862306209193584","117.57178172470586"
"B-1659","2,6-dimethyl-n-nitrosomorpholine","InChI=1S/C6H12N2O2/c1-5-3-8(7-9)4-6(2)10-5/h5-6H,3-4H2,1-2H3","DPYMAXOKJUBANR-UHFFFAOYSA-N","CC1CN(CC(C)O1)N=O","-0.0655","0.0","1","G1","144.17399999999998","0.7769999999999999","37.37700000000001","10.0","3.0","0.0","4.0","1.0","58.0","0.0","1.0","1.0","1.0","41.9","60.096377350459065","2.417613433147248","118.91622381280224"
"B-1661","pyridine, 2,3,6-trimethyl-","InChI=1S/C8H11N/c1-6-4-5-7(2)9-8(6)3/h4-5H,1-3H3","UTBIMNXEDGNJFE-UHFFFAOYSA-N","Cc1ccc(C)c(C)n1","-0.5893","0.0","1","G1","121.183","2.00686","38.44800000000001","9.0","1.0","0.0","1.0","0.0","48.0","1.0","0.0","0.0","1.0","12.89","55.7458774436333","3.1716780304409156","215.80766205433727"
"B-1663","5-indanol","InChI=1S/C9H10O/c10-9-5-4-7-2-1-3-8(7)6-9/h4-6,10H,1-3H2","PEHSSTUGJUBZBI-UHFFFAOYSA-N","Oc1ccc2CCCc2c1","-1.3285","0.0","1","G1","134.17800000000003","1.8809","40.13180000000001","10.0","1.0","1.0","1.0","0.0","52.0","1.0","0.0","1.0","2.0","20.23","60.31463206135357","2.5226248626113557","252.9052208657395"
"B-1664","1,4-dichloro-2-butene(cis)","InChI=1S/C4H6Cl2/c5-3-1-2-4-6/h1-2H,3-4H2/b2-1-","FQDIANVAWVHZIR-UPHRSURJSA-N","ClC\C=C/CCl","-2.3333","0.0","1","G1","124.998","2.0202","30.57999999999999","6.0","0.0","0.0","2.0","2.0","36.0","0.0","0.0","0.0","0.0","0.0","47.75100679259846","2.7343859935615478","34.81274391313339"
"B-1665","piperidine, 3-ethyl-,","InChI=1S/C7H15N/c1-2-7-5-3-4-6-8-7/h7-8H,2-6H2,1H3/t7-/m1/s1","QBBKKFZGCDJDQK-SSDOTTSWSA-N","CC[C@@H]1CCCCN1","-0.3463","0.0","1","G1","113.20400000000001","1.5385","35.93269999999999","8.0","1.0","1.0","1.0","1.0","48.0","0.0","1.0","1.0","1.0","12.03","51.47293474428802","2.1250162554146717","55.407165571558394"
"B-1667","cyclohexanone, 2-(1-cyclohexen-1-yl)-","InChI=1S/C12H18O/c13-12-9-5-4-8-11(12)10-6-2-1-3-7-10/h6,11H,1-5,7-9H2","GVNVAWHJIKLAGL-UHFFFAOYSA-N","O=C1CCCCC1C2=CCCCC2","-2.7739999999999996","0.0","1","G1","178.27499999999995","3.246100000000002","53.516000000000034","13.0","1.0","0.0","1.0","1.0","72.0","0.0","1.0","2.0","2.0","17.07","80.21387104699329","2.043952341045132","227.27897581591654"
"B-1668","2-(acetyloxy)-4-bromo-benzoic acid","InChI=1S/C9H7BrO4/c1-5(11)14-8-3-2-6(10)4-7(8)9(12)13/h2-4H,1H3,(H,12,13)","VRJBEVQGJOSGOX-UHFFFAOYSA-N","CC(=O)Oc1ccc(Br)cc1C(O)=O","-2.5895","0.0","1","G1","259.055","2.0726","52.41030000000001","14.0","3.0","1.0","5.0","2.0","74.0","1.0","0.0","0.0","1.0","63.6","88.62460025011859","3.1445946425258846","386.3983860622849"
"B-1671","n,n-diethyl succinamic acid","InChI=1S/C8H15NO3/c1-3-9(4-2)7(10)5-6-8(11)12/h3-6H2,1-2H3,(H,11,12)","XILORGWKMLOGKF-UHFFFAOYSA-N","CCN(CC)C(=O)CCC(O)=O","-0.7937","0.0","1","G1","173.212","0.7195999999999998","44.79780000000002","12.0","2.0","1.0","4.0","5.0","70.0","0.0","0.0","0.0","0.0","57.61000000000001","72.17095745109273","3.7662844846674624","163.68590801734663"
"B-1673","urea, (4-methoxyphenyl)-","InChI=1S/C8H10N2O2/c1-12-7-4-2-6(3-5-7)10-8(9)11/h2-5H,1H3,(H3,9,10,11)","PGUKYDVWVXRPKK-UHFFFAOYSA-N","COc1ccc(NC(N)=O)cc1","-1.5917","0.0","1","G1","166.18","1.1857999999999997","46.200100000000006","12.0","2.0","2.0","4.0","2.0","64.0","1.0","0.0","0.0","1.0","64.35","70.32610755846159","2.7091478243736495","268.8912787750557"
"B-1674","4-methoxy-2-nitrophenol","InChI=1S/C7H7NO4/c1-12-5-2-3-7(9)6(4-5)8(10)11/h2-4,9H,1H3","YBUGOACXDPDUIR-UHFFFAOYSA-N","COc1ccc(O)c(c1)[N+]([O-])=O","-2.8409","0.0","1","G1","169.13599999999997","1.3089999999999997","41.313200000000016","12.0","4.0","1.0","5.0","2.0","64.0","1.0","0.0","0.0","1.0","72.6","68.35709993809625","3.167265777748714","310.274727511699"
"B-1675","1-propoxy-2-propanol","InChI=1S/C6H14O2/c1-3-4-8-5-6(2)7/h6-7H,3-5H2,1-2H3","FENFUOGYJVOCRY-UHFFFAOYSA-N","CCCOCC(C)O","0.9275","0.0","1","G1","118.17599999999997","0.7938000000000001","32.79079999999998","8.0","2.0","1.0","2.0","4.0","50.0","0.0","0.0","0.0","0.0","29.46","50.471740581515476","2.7158427612932585","43.79319390447952"
"B-1676","3-penten-2-ol","InChI=1S/C5H10O/c1-3-4-5(2)6/h3-6H,1-2H3/b4-3+","GJYMQFMQRRNLCY-ONEGZZNKSA-N","C/C=C/C(C)O","0.0152","0.0","1","G1","86.134","0.9433","26.494799999999987","6.0","1.0","1.0","1.0","1.0","36.0","0.0","0.0","0.0","0.0","20.23","38.303650205427736","3.032354946742984","45.900134529890124"
"B-1677","2-methyl-4-chlorophenol","InChI=1S/C7H7ClO/c1-5-4-6(8)2-3-7(5)9/h2-4,9H,1H3","RHPUJHQBPORFGV-UHFFFAOYSA-N","Cc1cc(Cl)ccc1O","-1.5519999999999998","0.12017300195000002","2","G3","142.585","2.3540200000000007","37.853800000000014","9.0","1.0","1.0","2.0","0.0","48.0","1.0","0.0","0.0","1.0","20.23","58.89384521297126","3.1716780304409156","220.15617759993404"
"B-1678","4,6-dichloro-o-cresol","InChI=1S/C7H6Cl2O/c1-4-2-5(8)3-6(9)7(4)10/h2-3,10H,1H3","WJQZZLQMLJPKQH-UHFFFAOYSA-N","Cc1cc(Cl)cc(Cl)c1O","-2.0439","0.0","1","G1","177.03","3.00742","42.86380000000002","10.0","1.0","1.0","3.0","0.0","54.0","1.0","0.0","0.0","1.0","20.23","69.19711143985293","3.3105328747224068","234.77817392215363"
"B-1679","benzamide, 3-(aminosulfonyl)-","InChI=1S/C7H8N2O3S/c8-7(10)5-2-1-3-6(4-5)13(9,11)12/h1-4H,(H2,8,10)(H2,9,11,12)","AJVBPNRMKNARPG-UHFFFAOYSA-N","NC(=O)c1cccc(c1)[S](N)(=O)=O","-2.1554","0.0","1","G1","200.21899999999994","-0.5670999999999999","46.33310000000001","13.0","3.0","2.0","6.0","2.0","70.0","1.0","0.0","0.0","1.0","103.25","75.39842462037784","3.291324672397669","438.805806251591"
"B-1680","2-propenoic acid, 3,3-dibromo-","InChI=1S/C3H2Br2O2/c4-2(5)1-3(6)7/h1H,(H,6,7)","VWWPGQPTCCQNIO-UHFFFAOYSA-N","OC(=O)C=C(Br)Br","-0.8358","0.0","1","G1","229.85500000000002","1.7022000000000002","33.5728","7.0","1.0","1.0","4.0","1.0","40.0","0.0","0.0","0.0","0.0","37.3","57.470383287961006","3.679228031962392","103.50253476985266"
"B-1682","urea, n,n''-ethylidenebis-","InChI=1S/C4H10N4O2/c1-2(7-3(5)9)8-4(6)10/h2H,1H3,(H3,5,7,9)(H3,6,8,10)","MIWFLWHJKFXSDI-UHFFFAOYSA-N","CC(NC(N)=O)NC(N)=O","-0.5916","0.0","1","G1","146.14999999999998","-1.3309999999999995","34.90019999999999","10.0","2.0","4.0","6.0","2.0","58.0","0.0","0.0","0.0","0.0","110.23999999999998","57.93662733234842","3.5301764091449273","130.19301755138517"
"B-1683","hydrazinecarboxamide, 2-cyclohexylidene-","InChI=1S/C7H13N3O/c8-7(11)10-9-6-4-2-1-3-5-6/h1-5H2,(H3,8,10,11)","KZDDDHJBINUIKQ-UHFFFAOYSA-N","NC(=O)NN=C1CCCCC1","-1.4127","0.0","1","G1","155.201","0.9748","43.23910000000002","11.0","2.0","2.0","4.0","1.0","62.0","0.0","1.0","1.0","1.0","67.48","65.83980604743961","2.3153782267233938","168.52449964393807"
"B-1684","2-naphthalenebutanoic acid, .gamma.-oxo-","InChI=1S/C14H12O3/c15-13(7-8-14(16)17)12-6-5-10-3-1-2-4-11(10)9-12/h1-6,9H,7-8H2,(H,16,17)","GZKLCZIMSAHQDR-UHFFFAOYSA-N","OC(=O)CCC(=O)c1ccc2ccccc2c1","-3.8533","0.0","1","G1","228.247","2.8873000000000015","65.14830000000003","17.0","2.0","1.0","3.0","4.0","86.0","2.0","0.0","0.0","2.0","54.37","98.69011406110216","2.2368819089594187","572.443960054953"
"B-1685","daminozide","InChI=1S/C6H12N2O3/c1-8(2)7-5(9)3-4-6(10)11/h3-4H2,1-2H3,(H,7,9)(H,10,11)","NOQGZXFMHARMLW-UHFFFAOYSA-N","CN(C)NC(=O)CCC(O)=O","-0.2046","0.0","1","G1","160.173","-0.556","38.69949999999999","11.0","3.0","2.0","5.0","4.0","64.0","0.0","0.0","0.0","0.0","69.64000000000001","64.96107142614252","3.4541025653196717","155.90638535044312"
"B-1686","pentrinitrol","InChI=1S/C5H9N3O10/c9-1-5(2-16-6(10)11,3-17-7(12)13)4-18-8(14)15/h9H,1-4H2","BRBAEHHXGZRCBK-UHFFFAOYSA-N","OCC(CO[N+]([O-])=O)(CO[N+]([O-])=O)CO[N+]([O-])=O","-1.585","0.0","1","G1","271.138","-1.4099999999999995","48.358000000000025","18.0","10.0","1.0","13.0","10.0","104.0","0.0","0.0","0.0","0.0","177.33999999999997","98.15493159206596","4.631441285746561","273.08613732283936"
"B-1687","atratone","InChI=1S/C9H17N5O/c1-5-10-7-12-8(11-6(2)3)14-9(13-7)15-4/h6H,5H2,1-4H3,(H2,10,11,12,13,14)","PXWUKZGIHQRDHL-UHFFFAOYSA-N","CCNc1nc(NC(C)C)nc(OC)n1","-2.0696","0.018316719745146023","3","G5","211.26899999999998","1.1322999999999996","59.30140000000003","15.0","6.0","2.0","6.0","5.0","84.0","1.0","0.0","0.0","1.0","71.96000000000001","89.49326934543909","2.89174703245098","315.37105540415854"
"B-1688","2,4-pentadienenitrile","InChI=1S/C5H5N/c1-2-3-4-5-6/h2-4H,1H2/b4-3-","STSRVFAXSLNLLI-ARJAWSKDSA-N","C=C\C=C/C#N","-0.7221","0.0","1","G1","79.102","1.25218","24.949999999999992","6.0","1.0","0.0","1.0","1.0","30.0","0.0","0.0","0.0","0.0","23.79","37.21239310251618","3.2618700080453773","94.99629734317608"