"ID","Name","InChI","InChIKey","SMILES","Solubility","SD","Ocurrences","Group","MolWt","MolLogP","MolMR","HeavyAtomCount","NumHAcceptors","NumHDonors","NumHeteroatoms","NumRotatableBonds","NumValenceElectrons","NumAromaticRings","NumSaturatedRings","NumAliphaticRings","RingCount","TPSA","LabuteASA","BalabanJ","BertzCT"
"B-553","metaldehyde (tetramer)","InChI=1S/C8H16O4/c1-5-9-6(2)11-8(4)12-7(3)10-5/h5-8H,1-4H3","GKKDCARASOJPNG-UHFFFAOYSA-N","CC1OC(C)OC(C)OC(C)O1","-2.8997","0.015149999999999997","2","G3","176.212","1.4504","42.18800000000002","12.0","4.0","0.0","4.0","0.0","72.0","0.0","1.0","1.0","1.0","36.92","72.7421955931041","2.450052921667673","99.01955000865388"
"B-554","ethyl isovalerate","InChI=1S/C7H14O2/c1-4-9-7(8)5-6(2)3/h6H,4-5H2,1-3H3","PPXUHEORWJQRHJ-UHFFFAOYSA-N","CCOC(=O)CC(C)C","-1.8135","0.0920636582943411","3","G5","130.18699999999998","1.5956000000000001","36.087999999999994","9.0","2.0","0.0","2.0","3.0","54.0","0.0","0.0","0.0","0.0","26.3","56.20397104375983","3.2711920488970017","86.91694057588533"
"B-556","2,4,6-collidine","InChI=1S/C8H11N/c1-6-4-7(2)9-8(3)5-6/h4-5H,1-3H3","BWZVCCNYKMEVEX-UHFFFAOYSA-N","Cc1cc(C)nc(C)c1","-0.5394","0.0","1","G1","121.18299999999999","2.00686","38.44800000000001","9.0","1.0","0.0","1.0","0.0","48.0","1.0","0.0","0.0","1.0","12.89","55.7458774436333","3.165670309917317","165.32984016148868"
"B-561","4-methyl-2-pentyl acetate","InChI=1S/C8H16O2/c1-6(2)5-7(3)10-8(4)9/h6-7H,5H2,1-4H3","CPIVYSAVIPTCCX-UHFFFAOYSA-N","CC(C)CC(C)OC(C)=O","-2.0451","0.0","1","G1","144.21399999999997","1.9841","40.68300000000001","10.0","2.0","0.0","2.0","3.0","60.0","0.0","0.0","0.0","0.0","26.3","62.56891315815644","3.4313807383393122","107.82521876648654"
"B-563","4-methylpyridine","InChI=1S/C6H7N/c1-6-2-4-7-5-3-6/h2-5H,1H3","FKNQCJSGGFJEIZ-UHFFFAOYSA-N","Cc1ccncc1","1.0309","0.0","1","G1","93.12899999999999","1.39002","28.973999999999993","7.0","1.0","0.0","1.0","0.0","36.0","1.0","0.0","0.0","1.0","12.89","43.01599321484008","3.0214653097240864","134.10736969541455"
"B-565","thiophenol","InChI=1S/C6H6S/c7-6-4-2-1-3-5-6/h1-5,7H","RMVRSNDYEFQCLF-UHFFFAOYSA-N","Sc1ccccc1","-2.1204","0.0","1","G1","110.18099999999997","1.9752999999999996","33.694","7.0","1.0","1.0","1.0","0.0","36.0","1.0","0.0","0.0","1.0","0.0","48.58646978289869","3.0214653097240864","134.10736969541455"
"B-566","3-methylpyridine","InChI=1S/C6H7N/c1-6-3-2-4-7-5-6/h2-5H,1H3","ITQTTZVARXURQS-UHFFFAOYSA-N","Cc1cccnc1","1.0309","0.0","1","G1","93.129","1.39002","28.973999999999993","7.0","1.0","0.0","1.0","0.0","36.0","1.0","0.0","0.0","1.0","12.89","43.01599321484008","3.0214653097240864","134.10736969541455"
"B-567","n-methylmorpholine","InChI=1S/C5H11NO/c1-6-2-4-7-5-3-6/h2-5H2,1H3","SJRJJKPEHAURKC-UHFFFAOYSA-N","CN1CCOCC1","0.995","0.0","1","G1","101.149","-0.05160000000000009","28.315999999999985","7.0","2.0","0.0","2.0","0.0","42.0","0.0","1.0","1.0","1.0","12.47","44.066567231597","2.1229179499593664","50.041843979966416"
"B-569","piperazine, 2-methyl-","InChI=1S/C5H12N2/c1-5-4-6-2-3-7-5/h5-7H,2-4H2,1H3","JOMNTHCQHJPVAZ-UHFFFAOYSA-N","CC1CNCCN1","0.6378","0.05109999999999998","2","G3","100.165","-0.4323000000000001","30.334399999999988","7.0","2.0","2.0","2.0","0.0","42.0","0.0","1.0","1.0","1.0","24.06","44.29291269910284","2.1229179499593664","48.041843979966416"
"B-570","2-methylpyrazine","InChI=1S/C5H6N2/c1-5-4-6-2-3-7-5/h2-4H,1H3","CAWHJQAVHZEVTJ-UHFFFAOYSA-N","Cc1cnccn1","1.0263","0.0","1","G1","94.11699999999999","0.7850199999999998","26.76899999999999","7.0","2.0","0.0","2.0","0.0","36.0","1.0","0.0","0.0","1.0","25.78","42.2356411957866","3.0214653097240864","136.00750422530467"
"B-572","dibutyl sebacate","InChI=1S/C18H34O4/c1-3-5-15-21-17(19)13-11-9-7-8-10-12-14-18(20)22-16-6-4-2/h3-16H2,1-2H3","PYGXAGIECVVIOZ-UHFFFAOYSA-N","CCCCOC(=O)CCCCCCCCC(=O)OCCCC","-3.8955","1.443236982058069","3","G4","314.46600000000007","4.7938000000000045","88.67000000000007","22.0","4.0","0.0","4.0","15.0","130.0","0.0","0.0","0.0","0.0","52.60000000000001","135.49340163167324","3.2259727928316795","248.26072121928476"
"B-573","hexanedioic acid, bis(2-ethoxyethyl) ester","InChI=1S/C14H26O6/c1-3-17-9-11-19-13(15)7-5-6-8-14(16)20-12-10-18-4-2/h3-12H2,1-2H3","NJEMMCIKSMMBDM-UHFFFAOYSA-N","CCOCCOC(=O)CCCCC(=O)OCCOCC","-2.065","0.0","1","G1","290.356","1.7062","73.37200000000006","20.0","6.0","0.0","6.0","13.0","118.0","0.0","0.0","0.0","0.0","71.06","120.26072363310054","3.3244017748416343","228.0486833279507"
"B-574","3-hexyn-2-ol","InChI=1S/C6H10O/c1-3-4-5-6(2)7/h6-7H,3H2,1-2H3","IFCAMPHNVKBSTF-UHFFFAOYSA-N","CCC#CC(C)O","-0.4121","0.0","1","G1","98.14499999999997","0.7806","29.747799999999984","7.0","1.0","1.0","1.0","0.0","40.0","0.0","0.0","0.0","0.0","20.23","44.35742074386787","3.236502566584802","84.08847961525429"
"B-575","isobutyl vinyl ether","InChI=1S/C6H12O/c1-4-7-5-6(2)3/h4,6H,1,5H2,2-3H3","OZCMOJQQLBXBKI-UHFFFAOYSA-N","CC(C)COC=C","-1.5236","0.3098830776999999","2","G3","100.16099999999999","1.8025","30.986999999999984","7.0","1.0","0.0","1.0","3.0","42.0","0.0","0.0","0.0","0.0","9.23","44.98790379713521","2.8099823316091586","48.14170945007629"
"B-578","1,3-dibromopropane","InChI=1S/C3H6Br2/c4-2-1-3-5/h1-3H2","VEFLKXRACNJHOV-UHFFFAOYSA-N","BrCCCBr","-2.0747","0.0","1","G1","201.889","2.1663000000000006","32.20499999999999","5.0","0.0","0.0","2.0","2.0","32.0","0.0","0.0","0.0","0.0","0.0","49.20423046790548","2.19060968716425","12.36452797660028"
"B-580","2-pentene","InChI=1S/C5H10/c1-3-5-4-2/h3,5H,4H2,1-2H3/b5-3-","QMMOXUPEWRXHJS-HYXAFXHYSA-N","CC\C=C/C","-2.5384","0.0","1","G1","70.135","1.9725","25.10499999999999","5.0","0.0","0.0","0.0","1.0","30.0","0.0","0.0","0.0","0.0","0.0","33.50941645323172","2.622415807990217","27.019550008653873"
"B-581","n-butylamine","InChI=1S/C4H11N/c1-2-3-4-5/h2-5H2,1H3","HQABUPZFAYXKJW-UHFFFAOYSA-N","CCCCN","1.1359","0.0","1","G1","73.139","0.7452000000000001","23.9624","5.0","1.0","1.0","1.0","2.0","32.0","0.0","0.0","0.0","0.0","26.02","33.17396806803209","2.19060968716425","11.119415478763749"
"B-582","ethylene cyanohydrin","InChI=1S/C3H5NO/c4-2-1-3-5/h5H,1,3H2","WSGYTJNNHPZFKR-UHFFFAOYSA-N","OCCC#N","1.1483","0.0","1","G1","71.07900000000001","-0.10762000000000005","17.3158","5.0","2.0","1.0","2.0","1.0","28.0","0.0","0.0","0.0","0.0","44.019999999999996","30.65594869028749","2.483699570591265","45.344977967946406"
"B-583","butanethiol","InChI=1S/C4H10S/c1-2-3-4-5/h5H,2-4H2,1H3","WQAQPCDUOCURKW-UHFFFAOYSA-N","CCCCS","-2.1792","0.0","1","G1","90.19099999999999","1.7163","28.76099999999999","5.0","1.0","1.0","1.0","2.0","32.0","0.0","0.0","0.0","0.0","0.0","38.9891440344211","2.19060968716425","11.119415478763749"
"B-585","ethanol, 2-hydrazino-","InChI=1S/C2H8N2O/c3-4-1-2-5/h4-5H,1-3H2","GBHCABUWWQUMAJ-UHFFFAOYSA-N","NNCCO","1.1186","0.0","1","G1","76.09899999999999","-1.5579999999999998","19.2759","5.0","3.0","3.0","3.0","2.0","32.0","0.0","0.0","0.0","0.0","58.28","30.758315795277905","2.19060968716425","15.119415478763749"
"B-586","2-methoxyethanol","InChI=1S/C3H8O2/c1-5-3-2-4/h4H,2-3H2,1H3","XNWFRZJHXBZDAG-UHFFFAOYSA-N","COCCO","1.1186","0.0","1","G1","76.095","-0.37489999999999996","18.9618","5.0","2.0","1.0","2.0","2.0","32.0","0.0","0.0","0.0","0.0","29.46","31.37691423832566","2.19060968716425","12.36452797660028"
"B-592","sec-butylacetate","InChI=1S/C6H12O2/c1-5(2)4-8-6(3)7/h5H,4H2,1-3H3","GJRQTCIYDGXPES-UHFFFAOYSA-N","CC(C)COC(C)=O","-1.2657","0.04364198513785883","3","G5","116.15999999999998","1.2055","31.470999999999982","8.0","2.0","0.0","2.0","2.0","48.0","0.0","0.0","0.0","0.0","26.3","49.83902892936324","3.0500782919131915","76.59772060569361"
"B-593","acetone, semicarbazone","InChI=1S/C4H9N3O/c1-3(2)6-7-4(5)8/h1-2H3,(H3,5,7,8)","HQDAJGNZGNZGCO-UHFFFAOYSA-N","CC(C)=NNC(N)=O","-0.2674","0.0","1","G1","115.136","0.050500000000000156","31.502099999999995","8.0","2.0","2.0","4.0","1.0","46.0","0.0","0.0","0.0","0.0","67.47999999999999","47.750810857778994","3.4467148844381015","114.45183036609208"
"B-594","ethyl decanoate","InChI=1S/C12H24O2/c1-3-5-6-7-8-9-10-11-12(13)14-4-2/h3-11H2,1-2H3","RGXWDWUGBIJHDO-UHFFFAOYSA-N","CCCCCCCCCC(=O)OCC","-4.1006","0.0","1","G1","200.32199999999997","3.6902000000000026","59.24300000000005","14.0","2.0","0.0","2.0","9.0","84.0","0.0","0.0","0.0","0.0","26.3","88.0286816157429","3.0148257844595356","132.28341890015258"
"B-595","diethyl sebacate","InChI=1S/C14H26O4/c1-3-17-13(15)11-9-7-5-6-8-10-12-14(16)18-4-2/h3-12H2,1-2H3","ONKUXPIBXRRIDU-UHFFFAOYSA-N","CCOC(=O)CCCCCCCCC(=O)OCC","-3.5091","0.0","1","G1","258.3579999999999","3.2334000000000023","70.20200000000006","18.0","4.0","0.0","4.0","11.0","106.0","0.0","0.0","0.0","0.0","52.60000000000001","110.03363317408676","3.162653055346669","201.8338811517707"
"B-596","isoamyl formate","InChI=1S/C6H12O2/c1-6(2)3-4-8-5-7/h5-6H,3-4H2,1-2H3","XKYICAQFSCFURC-UHFFFAOYSA-N","CC(C)CCOC=O","-1.5206","0.01319999999999999","2","G3","116.15999999999998","1.2055","31.470999999999982","8.0","2.0","0.0","2.0","4.0","48.0","0.0","0.0","0.0","0.0","26.3","49.83902892936323","2.814002148389726","59.54887502163469"
"B-597","2-methoxyethyl acetate","InChI=1S/C5H10O3/c1-5(6)8-4-3-7-2/h3-4H2,1-2H3","XLLIQLLCWZCATF-UHFFFAOYSA-N","COCCOC(C)=O","0.9276","0.0","1","G1","118.13199999999999","0.19590000000000019","28.508999999999986","8.0","3.0","0.0","3.0","3.0","48.0","0.0","0.0","0.0","0.0","35.53","48.58763204447351","2.822354554248032","70.07403392114696"
"B-599","1,4-dichlorobutane","InChI=1S/C4H8Cl2/c5-3-1-2-4-6/h1-4H2","KJDRSWPQXHESDQ-UHFFFAOYSA-N","ClCCCCCl","-0.92","0.0","1","G1","127.01400000000001","2.2442","30.673999999999992","6.0","0.0","0.0","2.0","3.0","38.0","0.0","0.0","0.0","0.0","0.0","48.44060982478272","2.3390923149762908","17.509775004326936"
"B-600","1,4-dichloro-2-butene(trans)","InChI=1S/C4H6Cl2/c5-3-1-2-4-6/h1-2H,3-4H2/b2-1+","FQDIANVAWVHZIR-OWOJBTEDSA-N","ClC/C=C/CCl","-2.1675","0.08299999999999996","2","G3","124.998","2.0202","30.57999999999999","6.0","0.0","0.0","2.0","2.0","36.0","0.0","0.0","0.0","0.0","0.0","47.75100679259846","2.7343859935615478","34.81274391313339"
"B-601","n-pentylamine","InChI=1S/C5H13N/c1-2-3-4-5-6/h2-6H2,1H3","DPBLXKKOBLCELK-UHFFFAOYSA-N","CCCCCN","1.0597","0.0","1","G1","87.16600000000001","1.1353","28.57939999999999","6.0","1.0","1.0","1.0","3.0","38.0","0.0","0.0","0.0","0.0","26.02","39.538910182428694","2.3390923149762908","15.900134529890124"
"B-605","1-pentanethiol","InChI=1S/C5H12S/c1-2-3-4-5-6/h6H,2-5H2,1H3","ZRKMQKLGEQPLNS-UHFFFAOYSA-N","CCCCCS","-2.8248","0.0","1","G1","104.218","2.1064000000000003","33.377999999999986","6.0","1.0","1.0","1.0","3.0","38.0","0.0","0.0","0.0","0.0","0.0","45.35408614881771","2.3390923149762908","15.900134529890124"
"B-607","2-chloroethyl vinyl ether","InChI=1S/C4H7ClO/c1-2-6-4-3-5/h2H,1,3-4H2","DNJRKFKAFWSXSE-UHFFFAOYSA-N","ClCCOC=C","-2.3951","0.0","1","G1","106.55199999999999","1.3853","26.86899999999999","6.0","1.0","0.0","2.0","3.0","36.0","0.0","0.0","0.0","0.0","9.23","42.56128579522367","2.4884037718761123","36.529325012980806"
"B-608","2-ethoxyethanol","InChI=1S/C4H10O2/c1-2-6-4-3-5/h5H,2-4H2,1H3","ZNQVEEAIQZEUHB-UHFFFAOYSA-N","CCOCCO","1.0452","0.0","1","G1","90.122","0.015200000000000047","23.578799999999994","6.0","2.0","1.0","2.0","3.0","38.0","0.0","0.0","0.0","0.0","29.46","37.741856352722266","2.3390923149762908","17.509775004326936"
"B-609","piperazine","InChI=1S/C4H10N2/c1-2-6-4-3-5-1/h5-6H,1-4H2","GLUUGHFHXGJENI-UHFFFAOYSA-N","C1CNCCN1","1.0648","0.0","1","G1","86.138","-0.8208","25.739399999999993","6.0","2.0","2.0","2.0","0.0","36.0","0.0","1.0","1.0","1.0","24.06","37.92797058470623","2.0","21.019550008653873"
"B-611","morpholine","InChI=1S/C4H9NO/c1-3-6-4-2-5-1/h5H,1-4H2","YNAVUWVOSKDBBP-UHFFFAOYSA-N","C1COCCN1","1.0599","0.0","1","G1","87.122","-0.3938000000000001","23.688699999999994","6.0","2.0","1.0","2.0","0.0","36.0","0.0","1.0","1.0","1.0","21.259999999999998","37.49165363060507","2.0","23.019550008653873"
"B-613","diisobutylamine","InChI=1S/C8H19N/c1-5-7(3)9-8(4)6-2/h7-9H,5-6H2,1-4H3/p+1/t7-,8+","OBYVIBDTOCAXSN-OCAPTIKFSA-O","CC[C@H](C)[NH2+][C@H](C)CC","-1.7690000000000001","0.0","1","G1","130.255","1.1468","41.43140000000001","9.0","0.0","1.0","1.0","4.0","56.0","0.0","0.0","0.0","0.0","16.61","58.84370801221385","3.2230469044906185","53.587975038942446"
"B-615","acetic acid, 2,2'-oxybis-","InChI=1S/C4H6O5/c5-3(6)1-9-2-4(7)8/h1-2H2,(H,5,6)(H,7,8)","QEVGZEDELICMKH-UHFFFAOYSA-N","OC(=O)COCC(O)=O","0.4927","0.0","1","G1","134.087","-0.8277999999999999","26.090599999999995","9.0","3.0","2.0","5.0","4.0","52.0","0.0","0.0","0.0","0.0","83.83000000000001","50.8591343050058","3.1028259423155773","104.12640240679957"
"B-617","heptanoic acid","InChI=1S/C7H14O2/c1-2-3-4-5-6-7(8)9/h2-6H2,1H3,(H,8,9)","MNWFXJYAOYHMED-UHFFFAOYSA-N","CCCCCCC(O)=O","-1.6646","0.0","1","G1","130.18699999999998","2.0414","36.39479999999999","9.0","1.0","1.0","2.0","5.0","54.0","0.0","0.0","0.0","0.0","37.3","55.884659566448974","2.828868134909685","78.98533616859814"
"B-618","ethoxyethylacetate","InChI=1S/C6H12O3/c1-3-8-4-5-9-6(2)7/h3-5H2,1-2H3","SVONRAPFKPVNKG-UHFFFAOYSA-N","CCOCCOC(C)=O","0.2716","0.0","1","G1","132.159","0.5860000000000001","33.12599999999999","9.0","3.0","0.0","3.0","4.0","54.0","0.0","0.0","0.0","0.0","35.53","54.95257415887011","2.828868134909685","80.37215811651096"
"B-620","decanedioic acid","InChI=1S/C10H18O4/c11-9(12)7-5-3-1-2-4-6-8-10(13)14/h1-8H2,(H,11,12)(H,13,14)","CXMXRPHRNRROMY-UHFFFAOYSA-N","OC(=O)CCCCCCCCC(O)=O","-2.3059","0.3248702560000001","2","G3","202.24999999999997","2.2763999999999998","52.207600000000035","14.0","2.0","2.0","4.0","9.0","82.0","0.0","0.0","0.0","0.0","74.6","83.93524176187861","2.9895441287192144","156.96081175542733"
"B-621","triethylene glycol, dinitrate","InChI=1S/C6H12N2O8/c9-7(10)15-5-3-13-1-2-14-4-6-16-8(11)12/h1-6H2","AGCQZYRSTIRJFM-UHFFFAOYSA-N","[O-][N+](=O)OCCOCCOCCO[N+]([O-])=O","-1.561","0.0","1","G1","240.16799999999995","-0.5638000000000001","47.53080000000003","16.0","8.0","0.0","10.0","11.0","94.0","0.0","0.0","0.0","0.0","123.20000000000002","90.23217096179565","2.9847083013580864","188.70521621571416"
"B-623","diethylenetriamine","InChI=1S/C4H13N3/c5-1-3-7-4-2-6/h7H,1-6H2","RPNUMPOLZDHAAY-UHFFFAOYSA-N","NCCNCCN","0.9864","0.0","1","G1","103.16900000000001","-1.506599999999999","30.978499999999997","7.0","3.0","3.0","3.0","4.0","44.0","0.0","0.0","0.0","0.0","64.07","44.06372094865284","2.447472887876344","26.115877901113386"
"B-633","diethylene glycol monomethyl ether","InChI=1S/C5H12O3/c1-7-4-5-8-3-2-6/h6H,2-5H2,1H3","SBASXUCJHJRPEV-UHFFFAOYSA-N","COCCOCCO","0.9203","0.0","1","G1","120.148","-0.3583","29.780799999999985","8.0","3.0","1.0","3.0","5.0","50.0","0.0","0.0","0.0","0.0","38.69","49.22034369662575","2.53006045688352","32.655022032053594"
"B-634","n-nonane","InChI=1S/C9H20/c1-3-5-7-9-8-6-4-2/h3-9H2,1-2H3","BKIMMITUMNQMOS-UHFFFAOYSA-N","CCCCCCCCC","-5.7657","0.057150000000000034","2","G3","128.259","3.7569000000000026","43.667000000000016","9.0","0.0","0.0","0.0","6.0","56.0","0.0","0.0","0.0","0.0","0.0","59.658787943002416","2.595082706793886","33.30296890880646"
"B-637","diethylene glycol monoethyl ether","InChI=1S/C6H14O3/c1-2-8-5-6-9-4-3-7/h7H,2-6H2,1H3","XXJWXESWEXIICW-UHFFFAOYSA-N","CCOCCOCCO","0.8723","0.0","1","G1","134.175","0.031799999999999884","34.39779999999999","9.0","3.0","1.0","3.0","6.0","56.0","0.0","0.0","0.0","0.0","38.69","55.58528581102235","2.595082706793886","41.567631415296866"
"B-638","bis(2-chloroethoxy)methane","InChI=1S/C5H10Cl2O2/c6-1-3-8-5-9-4-2-7/h1-5H2","NLXGURFLBLRZRO-UHFFFAOYSA-N","ClCCOCOCCCl","-1.3461","0.023987079200000094","2","G3","173.039","1.4547","38.211000000000006","9.0","2.0","0.0","4.0","6.0","56.0","0.0","0.0","0.0","0.0","18.46","65.03264239819308","2.595082706793886","46.22265344735047"
"B-640","2-butoxyethanol acetate","InChI=1S/C8H16O3/c1-3-4-5-10-6-7-11-8(2)9/h3-7H2,1-2H3","NQBXSWAWVZHKBZ-UHFFFAOYSA-N","CCCCOCCOC(C)=O","-1.2504","0.0","1","G1","160.213","1.3662","42.360000000000014","11.0","3.0","0.0","3.0","6.0","66.0","0.0","0.0","0.0","0.0","35.53","67.68245838766332","2.8497612822334424","101.51029297451521"
"B-643","1,2-bis(2-chloroethoxy)ethane","InChI=1S/C6H12Cl2O2/c7-1-3-9-5-6-10-4-2-8/h1-6H2","AGYUOJIYYGGHKV-UHFFFAOYSA-N","ClCCOCCOCCCl","-0.9955","0.0","1","G1","187.06599999999997","1.4971999999999999","43.07800000000002","10.0","2.0","0.0","4.0","7.0","62.0","0.0","0.0","0.0","0.0","18.46","71.39758451258969","2.6476048489438337","53.70950594454669"
"B-645","diethylene glycol mono-n-butyl ether","InChI=1S/C8H18O3/c1-2-3-5-10-7-8-11-6-4-9/h9H,2-8H2,1H3","OAYXUHPQHDHDDZ-UHFFFAOYSA-N","CCCCOCCOCCO","0.7899","0.0","1","G1","162.22899999999998","0.812","43.63180000000001","11.0","3.0","1.0","3.0","8.0","68.0","0.0","0.0","0.0","0.0","38.69","68.31517003981556","2.6909155266923976","58.35751032880843"
"B-646","methoxy triethylene glycol","InChI=1S/C7H16O4/c1-9-4-5-11-7-6-10-3-2-8/h8H,2-7H2,1H3","JLGLQAWTXXGVEM-UHFFFAOYSA-N","COCCOCCOCCO","0.7846","0.0","1","G1","164.201","-0.34170000000000006","40.59980000000001","11.0","4.0","1.0","4.0","8.0","68.0","0.0","0.0","0.0","0.0","47.92","67.06377315492584","2.6909155266923976","59.460913376568676"
"B-647","bis (2-ethoxy ethyl)  ether","InChI=1S/C8H18O3/c1-3-9-5-7-11-8-6-10-4-2/h3-8H2,1-2H3","RRQYJINTUHWNHW-UHFFFAOYSA-N","CCOCCOCCOCC","0.7899","0.0","1","G1","162.22899999999998","1.076","43.80500000000002","11.0","3.0","0.0","3.0","8.0","68.0","0.0","0.0","0.0","0.0","27.69","68.63448151712643","2.6909155266923976","58.35751032880843"
"B-648","ethoxytriethylene glycol","InChI=1S/C8H18O4/c1-2-10-5-6-12-8-7-11-4-3-9/h9H,2-8H2,1H3","WFSMVVDJSNMRAR-UHFFFAOYSA-N","CCOCCOCCOCCO","0.7490000000000001","0.0","1","G1","178.22799999999998","0.04839999999999983","45.21680000000002","12.0","4.0","1.0","4.0","9.0","74.0","0.0","0.0","0.0","0.0","47.92","73.42871526932245","2.72724281291869","67.45811190640111"
"B-650","ethanol, 2- 2-(hexyloxy)ethoxy -","InChI=1S/C10H22O3/c1-2-3-4-5-7-12-9-10-13-8-6-11/h11H,2-10H2,1H3","GZMAAYIALGURDQ-UHFFFAOYSA-N","CCCCCCOCCOCCO","-1.0490000000000002","0.0","1","G1","190.28299999999996","1.5922","52.86580000000004","13.0","3.0","1.0","3.0","10.0","80.0","0.0","0.0","0.0","0.0","38.69","81.04505426860878","2.7581498184332935","76.23904349481765"
"B-655","eicosane","InChI=1S/C20H42/c1-3-5-7-9-11-13-15-17-19-20-18-16-14-12-10-8-6-4-2/h3-20H2,1-2H3","CBFCDTFDPHXCNY-UHFFFAOYSA-N","CCCCCCCCCCCCCCCCCCCC","-8.1724","0.0","1","G1","282.5559999999999","8.048000000000007","94.4540000000001","20.0","0.0","0.0","0.0","17.0","122.0","0.0","0.0","0.0","0.0","0.0","129.67315120136516","2.8896766777949185","132.11730005192322"
"B-656","propoxur","InChI=1S/C11H15NO3/c1-8(2)14-9-6-4-5-7-10(9)15-11(13)12-3/h4-8H,1-3H3,(H,12,13)","ISRUGXGCCGIOQO-UHFFFAOYSA-N","CNC(=O)Oc1ccccc1OC(C)C","-2.0512","0.0","1","G1","209.24499999999998","2.192","57.28970000000004","15.0","3.0","1.0","4.0","3.0","82.0","1.0","0.0","0.0","1.0","47.56","89.19458843414556","2.809453207323335","336.3598482774643"
"B-661","dimefox","InChI=1S/C4H12FN2OP/c1-6(2)9(5,8)7(3)4/h1-4H3","PGJBQBDNXAZHBP-UHFFFAOYSA-N","CN(C)[P](F)(=O)N(C)C","0.8121","0.0","1","G1","154.125","1.1872","36.088499999999996","9.0","1.0","0.0","5.0","2.0","56.0","0.0","0.0","0.0","0.0","23.550000000000004","55.04363954672382","4.208996984237657","124.5293250129808"
"B-662","chlorendic acid","InChI=1S/C9H4Cl6O4/c10-3-4(11)8(13)2(6(18)19)1(5(16)17)7(3,12)9(8,14)15/h1-2H,(H,16,17)(H,18,19)","DJKGDNKYTKCJKD-UHFFFAOYSA-N","OC(=O)C1C(C(O)=O)C2(Cl)C(=C(Cl)C1(Cl)C2(Cl)Cl)Cl","-2.0457","0.0","1","G1","388.845","3.2335000000000003","72.58860000000003","19.0","2.0","2.0","10.0","2.0","106.0","0.0","1.0","2.0","2.0","74.6","136.68863166952926","2.8385185499997143","486.8028747958183"