"ID","Name","InChI","InChIKey","SMILES","Solubility","SD","Ocurrences","Group","MolWt","MolLogP","MolMR","HeavyAtomCount","NumHAcceptors","NumHDonors","NumHeteroatoms","NumRotatableBonds","NumValenceElectrons","NumAromaticRings","NumSaturatedRings","NumAliphaticRings","RingCount","TPSA","LabuteASA","BalabanJ","BertzCT"
"B-2525","benzoic acid, 4-amino-, 1-methylethyl ester","InChI=1S/C10H13NO2/c1-7(2)13-10(12)8-3-5-9(11)6-4-8/h3-7H,11H2,1-2H3","JWCPZKNBPMSYND-UHFFFAOYSA-N","CC(C)OC(=O)c1ccc(N)cc1","-2.6099","0.0","1","G1","179.219","1.8339999999999999","51.405900000000024","13.0","3.0","1.0","3.0","2.0","70.0","1.0","0.0","0.0","1.0","52.32","77.50612960364676","2.7210567131320755","290.2979848465724"
"B-2527","1-propanamine, 3-(trimethylsilyl)-","InChI=1S/C6H17NSi/c1-8(2,3)6-4-5-7/h4-7H2,1-3H3","PFRLCKFENIXNMM-UHFFFAOYSA-N","C[Si](C)(C)CCCN","-1.9509","0.0","1","G1","131.295","1.6733999999999998","41.824400000000004","8.0","1.0","1.0","2.0","3.0","50.0","0.0","0.0","0.0","0.0","26.02","53.28483954220241","3.111766194388426","56.039100017307746"
"B-2528","hydrazinecarboximidamide, n-nitro-","InChI=1S/CH5N5O2/c2-1(4-3)5-6(7)8/h3H2,(H3,2,4,5)","LWPLPMSGDZDOLW-UHFFFAOYSA-N","NNC(=N)N[N+]([O-])=O","-1.6458","0.0","1","G1","119.08399999999999","-1.8342299999999998","25.17990000000001","8.0","4.0","4.0","7.0","1.0","46.0","0.0","0.0","0.0","0.0","117.07","44.457464854292894","3.3954996118673995","108.9962973431761"
"B-2529","benzenemethanol, 4-iodo-","InChI=1S/C7H7IO/c8-7-3-1-6(5-9)2-4-7/h1-4,9H,5H2","CNQRHSZYVFYOIE-UHFFFAOYSA-N","OCc1ccc(I)cc1","-2.7460000000000004","0.0","1","G1","234.036","1.7834999999999999","45.081800000000015","9.0","1.0","1.0","2.0","1.0","48.0","1.0","0.0","0.0","1.0","20.23","67.85241710713322","2.881555877646136","180.61256853719752"
"B-2530","1,2-cyclohexanedione, 3-methyl-, dioxime","InChI=1S/C7H12N2O2/c1-5-3-2-4-6(8-10)7(5)9-11/h5,10-11H,2-4H2,1H3","KVMQRKQPHOCZHY-UHFFFAOYSA-N","CC1CCCC(=NO)C1=NO","-1.5916","0.0","1","G1","156.185","1.4667999999999999","41.458000000000006","11.0","4.0","2.0","4.0","0.0","62.0","0.0","1.0","1.0","1.0","65.18","65.21026203574819","2.810618674357331","198.61725457064813"
"B-2531","1,2-cyclohexanedione, 4-methyl-, dioxime","InChI=1S/C7H12N2O2/c1-5-2-3-6(8-10)7(4-5)9-11/h5,9,11H,2-4H2,1H3","GJADLHDOELLEFC-UHFFFAOYSA-N","CC1CCC(=C(C1)NO)N=O","-1.6622","0.0","1","G1","156.18499999999997","1.7631999999999999","40.7582","11.0","4.0","2.0","4.0","2.0","62.0","0.0","0.0","1.0","1.0","61.69","65.22633594800823","2.741884988513675","188.87959510731497"
"B-2532","1,2-cyclohexanedione, 4-isopropyl-, dioxime","InChI=1S/C9H16N2O2/c1-6(2)7-3-4-8(10-12)9(5-7)11-13/h6-7,12-13H,3-5H2,1-2H3","NYHAZDHVIPVSDM-UHFFFAOYSA-N","CC(C)C1CCC(=NO)C(C1)=NO","-2.3903","0.0","1","G1","184.239","2.1029","50.62200000000002","13.0","4.0","2.0","4.0","1.0","74.0","0.0","1.0","1.0","1.0","65.18","77.9401462645414","2.6946203698874753","233.7692008115896"
"B-2533","l-alanine, n-(aminocarbonyl)-","InChI=1S/C4H8N2O3/c1-2(3(7)8)6-4(5)9/h2H,1H3,(H,7,8)(H3,5,6,9)/p-1/t2-/m0/s1","LUSWEUMSEVLFEQ-REOHCLBHSA-M","C[C@H](NC(N)=O)C([O-])=O","-0.9656","0.0","1","G1","131.111","-2.206899999999999","27.1881","9.0","3.0","2.0","5.0","2.0","52.0","0.0","0.0","0.0","0.0","95.25","51.84110820392367","3.632432151939845","133.77443751081734"
"B-2534","benz(a)anthracene-4,5-dimethylene","InChI=1S/C20H16/c1-13-6-5-9-18-19-12-16-8-4-3-7-15(16)11-17(19)10-14(2)20(13)18/h3-12H,1-2H3","XVSYIHPFNPQXRA-UHFFFAOYSA-N","Cc1cccc2c3cc4ccccc4cc3cc(C)c12","-7.9743","0.0","1","G1","256.348","5.763040000000004","88.43400000000004","20.0","0.0","0.0","0.0","0.0","96.0","4.0","0.0","0.0","4.0","0.0","118.2062809434958","2.2920897601012777","961.5588177778453"
"B-2535","1,2-cyclodecanedione, dioxime","InChI=1S/C10H18N2O2/c13-11-9-7-5-3-1-2-4-6-8-10(9)12-14/h13-14H,1-8H2","SUIIPPMGDURFRE-UHFFFAOYSA-N","ON=C1CCCCCCCCC1=NO","-2.5813","0.0","1","G1","198.266","2.781200000000001","55.379000000000026","14.0","4.0","2.0","4.0","0.0","80.0","0.0","1.0","1.0","1.0","65.18","84.30508837893804","2.587854649455147","200.16188799454835"
"B-2536","2-cyclopenta[c]pyran-4-carboxylic acid, 1-(á-d-g","InChI=1S/C17H26O10/c1-6-9(19)3-7-8(15(23)24-2)5-25-16(11(6)7)27-17-14(22)13(21)12(20)10(4-18)26-17/h5-7,9-14,16-22H,3-4H2,1-2H3/t6-,7+,9-,10+,11+,12+,13-,14+,16-,17-/m0/s1","AMBQHHVBBHTQBF-UOUCRYGSSA-N","COC(=O)C1=CO[C@@H](O[C@@H]2O[C@H](CO)[C@@H](O)[C@H](O)[C@H]2O)[C@@H]3[C@@H](C)[C@@H](O)C[C@H]13","-0.5911","0.0","1","G1","390.3850000000001","-2.1507999999999976","86.59200000000003","27.0","10.0","5.0","10.0","4.0","154.0","0.0","2.0","3.0","3.0","155.14000000000001","155.45810014445468","1.7990697171216272","578.0614322857565"
"B-2538","ethanesulfinothioic acid, s-ethyl ester","InChI=1S/C4H10OS2/c1-3-6-7(5)4-2/h3-4H2,1-2H3","FIWQKOIUXFENIV-UHFFFAOYSA-N","CCS[S](=O)CC","-0.0993","0.0","1","G1","138.257","1.4231","36.815400000000004","7.0","2.0","0.0","3.0","3.0","44.0","0.0","0.0","0.0","0.0","17.07","50.731403686310195","3.002590528674132","62.710134480364864"
"B-2539","albuterol","InChI=1S/C13H21NO3/c1-13(2,3)14-7-12(17)9-4-5-11(16)10(6-9)8-15/h4-6,12,14-17H,7-8H2,1-3H3","NDAUXUAQIAJITI-UHFFFAOYSA-N","CC(C)(C)NCC(O)c1ccc(O)c(CO)c1","-1.2298","0.3899","2","G3","239.315","1.3059999999999998","66.74510000000004","17.0","4.0","4.0","4.0","4.0","96.0","1.0","0.0","0.0","1.0","72.72","101.9185613604693","2.7202058661391737","371.41759115181975"
"B-2540","2h-pyran, tetrahydro-2-methoxy-6-methyl-","InChI=1S/C7H14O2/c1-6-4-3-5-7(8-2)9-6/h6-7H,3-5H2,1-2H3","FNEUIJOQHOUXIE-UHFFFAOYSA-N","COC1CCCC(C)O1","-0.5921","0.0","1","G1","130.187","1.5479","35.19499999999999","9.0","2.0","0.0","2.0","1.0","54.0","0.0","1.0","1.0","1.0","18.46","56.15016301969372","2.23165161946076","82.98533616859814"
"B-2541","2-oxabicyclo[2.2.2]octan-6-one, 1,3,3-trimethyl-","InChI=1S/C10H16O2/c1-9(2)7-4-5-10(3,12-9)8(11)6-7/h7H,4-6H2,1-3H3","CCBAAZXPXFYPBE-UHFFFAOYSA-N","CC1(C)OC2(C)CCC1CC2=O","-0.9249","0.0","1","G1","168.236","1.9231","45.91700000000002","12.0","2.0","0.0","2.0","0.0","68.0","0.0","3.0","3.0","3.0","26.3","73.28713507989121","2.3236287970727183","231.99307854851642"
"B-2542","methabenzthiazuron","InChI=1S/C10H11N3OS/c1-11-9(14)13(2)10-12-7-5-3-4-6-8(7)15-10/h3-6H,1-2H3,(H,11,14)","RRVIAQKBTUQODI-UHFFFAOYSA-N","CNC(=O)N(C)c1sc2ccccc2n1","-3.5741","0.0","1","G1","221.28500000000003","2.0719","62.47870000000002","15.0","3.0","1.0","5.0","1.0","78.0","2.0","0.0","0.0","2.0","45.230000000000004","91.53912319963518","2.4015741652911338","461.1280872682804"
"B-2543","3-heptanol, 2-methyl-","InChI=1S/C8H18O/c1-4-5-6-8(9)7(2)3/h7-9H,4-6H2,1-3H3","QGVFLDUEHSIZIG-UHFFFAOYSA-N","CCCCC(O)C(C)C","-1.8122","0.0","1","G1","130.23099999999997","2.1935000000000002","40.369800000000005","9.0","1.0","1.0","1.0","4.0","56.0","0.0","0.0","0.0","0.0","20.23","58.088079580801804","3.1552800835051924","59.58797503894244"
"B-2544","3-heptanol, 5-methyl-","InChI=1S/C8H18O/c1-4-7(3)6-8(9)5-2/h7-9H,4-6H2,1-3H3","SECKOSOTZOBWEI-UHFFFAOYSA-N","CCC(C)CC(O)CC","-1.8602","0.0","1","G1","130.23099999999997","2.1935000000000002","40.369800000000005","9.0","1.0","1.0","1.0","4.0","56.0","0.0","0.0","0.0","0.0","20.23","58.088079580801804","3.2230469044906185","53.587975038942446"
"B-2545","ethylisopentylcarbinol","InChI=1S/C8H18O/c1-4-8(9)6-5-7(2)3/h7-9H,4-6H2,1-3H3","MNBIBGDICHMQFN-UHFFFAOYSA-N","CCC(O)CCC(C)C","-1.9272","0.0","1","G1","130.231","2.1935000000000002","40.369800000000005","9.0","1.0","1.0","1.0","4.0","56.0","0.0","0.0","0.0","0.0","20.23","58.088079580801804","3.0608205611627874","59.58797503894244"
"B-2546","2,5-selenophenedicarboxylic acid, tetrahydro-","InChI=1S/C6H8O4Se/c7-5(8)3-1-2-4(11-3)6(9)10/h3-4H,1-2H2,(H,7,8)(H,9,10)","WFKGWJKGEDFLTH-UHFFFAOYSA-N","OC(=O)C1CCC([Se]1)C(O)=O","-0.545","0.0","1","G1","223.086","0.23060000000000008","37.7596","11.0","2.0","2.0","5.0","2.0","62.0","0.0","1.0","1.0","1.0","74.6","69.75020323186911","2.4689795783424326","171.02130455739126"
"B-2547","isoxathion","InChI=1S/C13H16NO4PS/c1-3-15-19(20,16-4-2)18-13-10-12(17-14-13)11-8-6-5-7-9-11/h5-10H,3-4H2,1-2H3","SDMSCIWHRZJSRN-UHFFFAOYSA-N","CCO[P](=S)(OCC)Oc1cc(on1)c2ccccc2","-5.2172","0.0","1","G1","313.315","4.017900000000003","80.10400000000003","20.0","6.0","0.0","7.0","7.0","108.0","2.0","0.0","0.0","2.0","53.72","122.63416312567372","2.1450928871860038","577.0669089216854"
"B-2548","butanoic acid, 3-methyl-, 4-nitrophenyl ester","InChI=1S/C11H13NO4/c1-8(2)7-11(13)16-10-5-3-9(4-6-10)12(14)15/h3-6,8H,7H2,1-2H3","SZQWZNOMEWDZLR-UHFFFAOYSA-N","CC(C)CC(=O)Oc1ccc(cc1)[N+]([O-])=O","-4.3945","0.0","1","G1","223.22799999999998","2.5463000000000005","58.18640000000003","16.0","4.0","0.0","5.0","4.0","86.0","1.0","0.0","0.0","1.0","69.44","93.18415674353045","2.6161392427765295","383.4759654533224"
"B-2549","benzenemethanol, 2-bromo-","InChI=1S/C7H7BrO/c8-7-4-2-1-3-6(7)5-9/h1-4,9H,5H2","IOWGHQGLUMEZKG-UHFFFAOYSA-N","OCc1ccccc1Br","-2.158","0.0","1","G1","187.03599999999997","1.9413999999999998","40.06480000000001","9.0","1.0","1.0","2.0","1.0","48.0","1.0","0.0","0.0","1.0","20.23","62.458126591730945","3.0065240073265844","197.86256853719752"
"B-2551","acetamide, n- 4- (2-pyridinylamino)sulfonyl phen","InChI=1S/C13H13N3O3S/c1-10(17)15-11-5-7-12(8-6-11)20(18,19)16-13-4-2-3-9-14-13/h2-9H,1H3,(H,14,16)(H,15,17)","CYLYVXPHAQLXFG-UHFFFAOYSA-N","CC(=O)Nc1ccc(cc1)[S](=O)(=O)Nc2ccccn2","-3.7162","0.0","1","G1","291.332","1.8407999999999998","75.79120000000003","20.0","4.0","2.0","7.0","4.0","104.0","2.0","0.0","0.0","2.0","88.16","116.46005189497565","2.1944777869812415","697.4010569789732"
"B-2552","2,4-pteridinediamine, 6,7-diethyl-","InChI=1S/C10H14N6/c1-3-5-6(4-2)14-9-7(13-5)8(11)15-10(12)16-9/h3-4H2,1-2H3,(H4,11,12,14,15,16)","BUZKILZDXOORCH-UHFFFAOYSA-N","CCc1nc2nc(N)nc(N)c2nc1CC","-3.2671","0.0","1","G1","218.26399999999998","0.7089999999999999","62.70880000000001","16.0","6.0","2.0","6.0","2.0","84.0","2.0","0.0","0.0","2.0","103.6","93.13120942663008","2.7764950080151056","536.3105594936766"
"B-2553","pteridine, 2-(methylamino)-","InChI=1S/C7H7N5/c1-8-7-11-4-5-6(12-7)10-3-2-9-5/h2-4H,1H3,(H,8,10,11,12)","FCJSISFRKUULPL-UHFFFAOYSA-N","CNc1ncc2nccnc2n1","-1.7124","0.0","1","G1","161.16799999999998","0.4614999999999998","44.674700000000016","12.0","5.0","1.0","5.0","1.0","60.0","2.0","0.0","0.0","2.0","63.59","68.90646387302287","2.673996462761564","399.6737978552908"
"B-2554","nicotinamide, n-(6-methoxy-8-quinolyl)-","InChI=1S/C16H13N3O2/c1-21-13-8-11-4-3-7-18-15(11)14(9-13)19-16(20)12-5-2-6-17-10-12/h2-10H,1H3,(H,19,20)","ZWJRCYOUDPYYAQ-UHFFFAOYSA-N","COc1cc(NC(=O)c2cccnc2)c3ncccc3c1","-4.4461","0.0","1","G1","279.29900000000004","2.8907000000000007","80.48520000000002","21.0","4.0","1.0","5.0","3.0","104.0","3.0","0.0","0.0","3.0","64.11","121.16427156114109","2.0158973857591436","787.8888977295805"
"B-2555","polyoxin b","InChI=1S/C17H25N5O13/c18-6(8(25)5(24)3-34-16(19)32)13(29)20-7(15(30)31)11-9(26)10(27)14(35-11)22-1-4(2-23)12(28)21-17(22)33/h1,5-11,14,23-27H,2-3,18H2,(H2,19,32)(H,20,29)(H,30,31)(H,21,28,33)/t5-,6-,7-,8+,9?,10?,11+,14+/m0/s1","YFZNSPMAOIVQRP-KMJOXCMOSA-N","N[C@@H]([C@H](O)[C@@H](O)COC(N)=O)C(=O)N[C@@H]([C@H]1O[C@H](C(O)C1O)N2C=C(CO)C(=O)NC2=O)C(O)=O","0.2946","0.0","1","G1","507.4090000000002","-6.638099999999997","108.26000000000003","35.0","14.0","10.0","18.0","10.0","196.0","1.0","1.0","1.0","2.0","309.97999999999996","193.84883395165411","2.21782789978754","1057.531968149067"
"B-2556","5-chlorovanillin","InChI=1S/C8H7ClO3/c1-12-7-3-5(4-10)2-6(9)8(7)11/h2-4,11H,1H3","ONIVKFDMLVBDRK-UHFFFAOYSA-N","COc1cc(C=O)cc(Cl)c1O","-2.8747","0.0","1","G1","186.59399999999997","1.8667000000000002","45.056300000000014","12.0","3.0","1.0","4.0","2.0","64.0","1.0","0.0","0.0","1.0","46.53","74.5338546569185","3.278676986181533","309.41643696177533"
"B-2557","1(3h)-isobenzofuranone, 6-bromo-","InChI=1S/C8H5BrO2/c9-6-2-1-5-4-11-8(10)7(5)3-6/h1-3H,4H2","BELKVKMBIAENSA-UHFFFAOYSA-N","Brc1ccc2COC(=O)c2c1","-2.6472","0.0","1","G1","213.02999999999994","2.1195","43.26150000000001","11.0","2.0","0.0","3.0","0.0","56.0","1.0","0.0","1.0","2.0","26.3","72.29807112995296","2.60360667998887","319.8681387531291"
"B-2558","3,5-dimethyl-4-heptanol","InChI=1S/C9H20O/c1-5-7(3)9(10)8(4)6-2/h7-10H,5-6H2,1-4H3","ZKXITRNXHWEQJU-UHFFFAOYSA-N","CCC(C)C(O)C(C)CC","-2.5108","0.0","1","G1","144.25799999999995","2.4395000000000007","44.916800000000016","10.0","1.0","1.0","1.0","4.0","62.0","0.0","0.0","0.0","0.0","20.23","64.45302169519842","3.685406534013343","70.79745154591336"
"B-2560","phenol, 2,4-dichloro-6-(phenylmethyl)-","InChI=1S/C13H10Cl2O/c14-11-7-10(13(16)12(15)8-11)6-9-4-2-1-3-5-9/h1-5,7-8,16H,6H2","MJTIYXIISJNFMG-UHFFFAOYSA-N","Oc1c(Cl)cc(Cl)cc1Cc2ccccc2","-4.6399","0.0","1","G1","253.128","4.289800000000002","67.37480000000002","16.0","1.0","1.0","3.0","2.0","82.0","2.0","0.0","0.0","2.0","20.23","104.25420564591698","2.349941847732457","494.78582265260087"
"B-2561","1(3h)-isobenzofuranone, 6-chloro-","InChI=1S/C8H5ClO2/c9-6-2-1-5-4-11-8(10)7(5)3-6/h1-3H,4H2","NUAVXUHBPNMQEV-UHFFFAOYSA-N","Clc1ccc2COC(=O)c2c1","-2.4817","0.0","1","G1","168.57899999999998","2.0103999999999997","40.571500000000015","11.0","2.0","0.0","3.0","0.0","56.0","1.0","0.0","1.0","2.0","26.3","68.73378975119326","2.60360667998887","319.8681387531291"
"B-2563","1-naphthoic acid, 4-ethoxy-","InChI=1S/C13H12O3/c1-2-16-12-8-7-11(13(14)15)9-5-3-4-6-10(9)12/h3-8H,2H2,1H3,(H,14,15)","AOKDTARDWHVNDE-UHFFFAOYSA-N","CCOc1ccc(C(O)=O)c2ccccc12","-4.1122","0.0","1","G1","216.236","2.936700000000001","62.076300000000025","16.0","2.0","1.0","3.0","3.0","82.0","2.0","0.0","0.0","2.0","46.53","93.27719507616865","2.7149446583755252","531.6887866132065"
"B-2564","1,2-butanediol, 2-methyl-1-phenyl-","InChI=1S/C11H16O2/c1-3-11(2,13)10(12)9-7-5-4-6-8-9/h4-8,10,12-13H,3H2,1-2H3","VUHBPPSSQKUCSE-UHFFFAOYSA-N","CCC(C)(O)C(O)c1ccccc1","-1.7244","0.0","1","G1","180.24699999999999","1.881","52.316600000000044","13.0","2.0","2.0","2.0","3.0","72.0","1.0","0.0","0.0","1.0","40.46","78.84458119587204","2.852943579601413","254.05260581186823"
"B-2565","d-leucine, n-acetyl-","InChI=1S/C8H15NO3/c1-5(2)4-7(8(11)12)9-6(3)10/h5,7H,4H2,1-3H3,(H,9,10)(H,11,12)/t7-/m1/s1","WXNXCEHXYPACJF-SSDOTTSWSA-N","CC(C)C[C@@H](NC(C)=O)C(O)=O","-1.3301","0.0","1","G1","173.212","0.6218000000000001","44.69550000000001","12.0","2.0","2.0","4.0","4.0","70.0","0.0","0.0","0.0","0.0","66.4","71.9609859644974","4.044711483745026","177.1417863019849"
"B-2567","dl-serine, o-methyl-","InChI=1S/C4H9NO3/c1-8-2-3(5)4(6)7/h3H,2,5H2,1H3,(H,6,7)/t3-/m0/s1","KNTFCRCCPLEUQZ-VKHMYHEASA-N","COC[C@H](N)C(O)=O","0.6524","0.0","1","G1","119.11999999999999","-0.9552999999999991","27.487199999999994","8.0","3.0","2.0","4.0","3.0","48.0","0.0","0.0","0.0","0.0","72.55000000000001","47.24326914977875","3.3180871972839956","83.35260810785708"
"B-2568","4(1h)-pyrimidinone, 5-bromo-","InChI=1S/C4H3BrN2O/c5-3-1-6-2-7-4(3)8/h1-2H,(H,6,7,8)","CLJIGLPOBRSBNU-UHFFFAOYSA-N","BrC1=CN=CNC1=O","-0.4471","0.0","1","G1","174.985","0.5323999999999998","32.55769999999999","8.0","2.0","1.0","4.0","0.0","42.0","1.0","0.0","0.0","1.0","45.75","53.89976878707511","3.3466073908691203","231.47996149735152"
"B-2569","3-pyridinecarbonitrile, 6-chloro-1,2-dihydro-4-h","InChI=1S/C6H3ClN2O2/c7-5-1-4(10)3(2-8)6(11)9-5/h1H,(H2,9,10,11)","RXXVHWHDEKSPRL-UHFFFAOYSA-N","OC1=C(C#N)C(=O)C=C(Cl)N1","-1.2319","0.0","1","G1","170.55499999999998","0.6055799999999999","38.4525","11.0","3.0","2.0","5.0","0.0","56.0","1.0","0.0","0.0","1.0","76.88","66.66759497543025","3.5293389561660895","377.14916495848865"
"B-2570","propanoic acid, 3-hydroxy-2-methyl-, 2,3,3a,4,5,","InChI=1S/C19H26O6/c1-11-5-4-6-14(10-21)8-16-17(13(3)19(23)25-16)15(7-11)24-18(22)12(2)9-20/h5,8,12,15-17,20-21H,3-4,6-7,9-10H2,1-2H3/b11-5+,14-8-/t12?,15-,16+,17+/m0/s1","VOOFFTMORIBISQ-UMRVURNHSA-N","CC(CO)C(=O)O[C@H]1CC(=C/CCC(=C/[C@H]2OC(=O)C(=C)[C@H]12)/CO)/C","-2.2436","0.0","1","G1","350.4110000000001","1.6732999999999998","91.41660000000003","25.0","6.0","2.0","6.0","4.0","138.0","0.0","1.0","2.0","2.0","93.06000000000002","147.3663398468506","2.3677383640631535","603.035575168312"
"B-2571","ethyl isopropylamine","InChI=1S/C5H13N/c1-4-6-5(2)3/h5-6H,4H2,1-3H3","RIVIDPPYRINTTH-UHFFFAOYSA-N","CCNC(C)C","1.0597","0.0","1","G1","87.166","1.0043","28.812699999999985","6.0","1.0","1.0","1.0","2.0","38.0","0.0","0.0","0.0","0.0","12.03","39.74888166902402","2.6272148478988635","25.11941547876375"
"B-2572","1,2,3,4-tetrachloronaphthalene","InChI=1S/C10H4Cl4/c11-7-5-3-1-2-4-6(5)8(12)10(14)9(7)13/h1-4H","NAQWICRLNQSPPW-UHFFFAOYSA-N","Clc1c(Cl)c(Cl)c2ccccc2c1Cl","-7.7954","0.0","1","G1","265.954","5.453400000000001","63.988000000000014","14.0","0.0","0.0","4.0","0.0","72.0","2.0","0.0","0.0","2.0","0.0","101.32613255875886","3.021805296135276","458.43842469911027"
"B-2573","benzoic acid, 4-amino-, dodecyl ester","InChI=1S/C19H31NO2/c1-2-3-4-5-6-7-8-9-10-11-16-22-19(21)17-12-14-18(20)15-13-17/h12-15H,2-11,16,20H2,1H3","IXYYMEVNJZMVBN-UHFFFAOYSA-N","CCCCCCCCCCCCOC(=O)c1ccc(N)cc1","-7.8","0.0","1","G1","305.462","5.346500000000004","92.98090000000006","22.0","3.0","1.0","3.0","12.0","124.0","1.0","0.0","0.0","1.0","52.32","134.79060863321627","1.9268319902698223","400.4011396492779"
"B-2574","2-furaldehyde, 5-nitro-, 2-pentylsemicarbazone","InChI=1S/C11H16N4O4/c1-2-3-4-7-14(11(12)16)13-8-9-5-6-10(19-9)15(17)18/h5-6,8H,2-4,7H2,1H3,(H2,12,16)","WWWBXFHCAYRVDH-UHFFFAOYSA-N","CCCCCN(N=Cc1oc(cc1)[N+]([O-])=O)C(N)=O","-2.8971","0.0","1","G1","268.273","2.0926","68.77080000000002","19.0","5.0","1.0","8.0","7.0","104.0","1.0","0.0","0.0","1.0","114.97","109.56000788020484","2.6328220633015986","469.01517157216483"
"B-2575","a-(2,2,2-trichloroethyl)styrene","InChI=1S/C10H9Cl3/c1-8(7-10(11,12)13)9-5-3-2-4-6-9/h2-6H,1,7H2","JNHUFDXYWPRKLK-UHFFFAOYSA-N","ClC(Cl)(Cl)CC(=C)c1ccccc1","-4.2822","0.0","1","G1","235.541","4.460100000000002","60.383000000000024","13.0","0.0","0.0","3.0","2.0","70.0","1.0","0.0","0.0","1.0","0.0","93.11136722554419","2.7064848330743776","284.7882098422454"
"B-2576","cinmetacin","InChI=1S/C21H19NO4/c1-14-17(13-21(24)25)18-12-16(26-2)9-10-19(18)22(14)20(23)11-8-15-6-4-3-5-7-15/h3-12H,13H2,1-2H3,(H,24,25)/b11-8+","NKPPORKKCMYYTO-DHZHZOJOSA-N","COc1ccc2n(c(C)c(CC(O)=O)c2c1)C(=O)\C=C\c3ccccc3","-5.5433","0.0","1","G1","349.386","3.939020000000003","100.66930000000002","26.0","4.0","1.0","5.0","5.0","132.0","3.0","0.0","0.0","3.0","68.53","150.68510871528827","2.096537532177531","999.7730262931057"
"B-2577","diethyl pentyl phosphate","InChI=1S/C9H21O4P/c1-4-7-8-9-13-14(10,11-5-2)12-6-3/h4-9H2,1-3H3","ITJPTURSPJESQC-UHFFFAOYSA-N","CCCCCO[P](=O)(OCC)OCC","-1.4757","0.0","1","G1","224.23699999999997","3.3743000000000025","56.33550000000005","14.0","4.0","0.0","5.0","9.0","86.0","0.0","0.0","0.0","0.0","44.760000000000005","86.54903430599812","3.7767972529836134","162.1948894066819"
"B-2579","2-butanol, 3,3-dimethyl-, (.+-.)-","InChI=1S/C6H14O/c1-5(7)6(2,3)4/h5,7H,1-4H3","DFOXKPDFWGNLJU-UHFFFAOYSA-N","CC(O)C(C)(C)C","-0.6238","0.0","1","G1","102.17699999999999","1.4133","31.135799999999982","7.0","1.0","1.0","1.0","0.0","44.0","0.0","0.0","0.0","0.0","20.23","45.35819535200859","3.541196965079901","49.69058447171098"
"B-2580","3-octanol, (.+-.)-","InChI=1S/C8H18O/c1-3-5-6-7-8(9)4-2/h8-9H,3-7H2,1-2H3","NMRPBPVERJPACX-UHFFFAOYSA-N","CCCCCC(O)CC","-2.0171","0.161844789877337","4","G5","130.23099999999997","2.3376","40.439800000000005","9.0","1.0","1.0","1.0","5.0","56.0","0.0","0.0","0.0","0.0","20.23","58.088079580801804","2.8766225950797444","52.52932501298081"
"B-2581","phosphorodithioic acid, s-[2-(ethylsulfonyl)ethy","InChI=1S/C6H15O4PS3/c1-4-14(7,8)6-5-13-11(12,9-2)10-3/h4-6H2,1-3H3","GAXMYYJSILFZLT-UHFFFAOYSA-N","CC[S](=O)(=O)CCS[P](=S)(OC)OC","-2.5415","0.0","1","G1","278.357","1.6716","65.08880000000003","14.0","6.0","0.0","8.0","7.0","86.0","0.0","0.0","0.0","0.0","52.60000000000001","94.58140293418245","4.02527025754518","292.1984776463023"