"ID","Name","InChI","InChIKey","SMILES","Solubility","SD","Ocurrences","Group","MolWt","MolLogP","MolMR","HeavyAtomCount","NumHAcceptors","NumHDonors","NumHeteroatoms","NumRotatableBonds","NumValenceElectrons","NumAromaticRings","NumSaturatedRings","NumAliphaticRings","RingCount","TPSA","LabuteASA","BalabanJ","BertzCT"
"B-2854","propane-2-thiosulfinic acid s-isopropyl ester","InChI=1S/C6H14OS2/c1-5(2)8-9(7)6(3)4/h5-6H,1-4H3","IYZLJTJFIUHNRL-UHFFFAOYSA-N","CC(C)S[S](=O)C(C)C","-0.823","0.0","1","G1","166.311","2.2001","46.00540000000003","9.0","2.0","0.0","3.0","3.0","56.0","0.0","0.0","0.0","0.0","17.07","63.4612879151034","3.512827448281546","99.2309826803223"
"B-2855","2,4-pentanediol, 2-methyl-4-(1-naphthalenyl)-","InChI=1S/C16H20O2/c1-15(2,17)11-16(3,18)14-10-6-8-12-7-4-5-9-13(12)14/h4-10,17-18H,11H2,1-3H3","VIDCUYMAESSAFM-UHFFFAOYSA-N","CC(C)(O)CC(C)(O)c1cccc2ccccc12","-3.2419","0.0","1","G1","244.33400000000003","3.208300000000002","74.43360000000004","18.0","2.0","2.0","2.0","3.0","96.0","2.0","0.0","0.0","2.0","40.46","107.89118784200386","2.533018133502246","545.0206702076214"
"B-2856","2,8-dichlorodibenzo-p-dioxin","InChI=1S/C12H6Cl2O2/c13-7-1-3-9-11(5-7)16-12-6-8(14)2-4-10(12)15-9/h1-6H","WMWJCKBJUQDYLM-UHFFFAOYSA-N","Clc1ccc2Oc3ccc(Cl)cc3Oc2c1","-7.1806","0.0","1","G1","253.08399999999997","4.891400000000002","63.05200000000003","16.0","2.0","0.0","4.0","0.0","80.0","2.0","0.0","1.0","3.0","18.46","102.31628908480887","2.095968543903448","517.440372986049"
"B-2857","octachlorodibenzofuran","InChI=1S/C12Cl8O/c13-3-1-2-4(14)6(16)8(18)10(20)12(2)21-11(1)9(19)7(17)5(3)15","RHIROFAGUQOFLU-UHFFFAOYSA-N","Clc1c(Cl)c(Cl)c2c(oc3c(Cl)c(Cl)c(Cl)c(Cl)c23)c1Cl","-11.5827","0.0","1","G1","443.7550000000001","8.813199999999998","93.8","21.0","1.0","0.0","9.0","0.0","110.0","3.0","0.0","0.0","3.0","13.14","158.01519126209757","2.734190644844544","852.7686952525269"
"B-2858","3-bromo-2-iodo-acrylic acid","InChI=1S/C3H2BrIO2/c4-1-2(5)3(6)7/h1H,(H,6,7)","QCXZPFMTVRXKMN-UHFFFAOYSA-N","OC(=O)C(I)=CBr","-1.2118","0.0","1","G1","276.855","1.7423000000000002","38.6658","7.0","1.0","1.0","4.0","1.0","40.0","0.0","0.0","0.0","0.0","37.3","62.86467380336328","3.8165829734656636","109.50253476985266"
"B-2859","thiofanox","InChI=1S/C9H18N2O2S/c1-9(2,3)7(6-14-5)11-13-8(12)10-4/h6H2,1-5H3,(H,10,12)/b11-7-","FZSVSABTBYGOQH-XFFZJAGNSA-N","CNC(=O)O\N=C(\CSC)C(C)(C)C","-1.6231","0.0","1","G1","218.32199999999997","2.1075","60.812700000000035","14.0","4.0","1.0","5.0","3.0","82.0","0.0","0.0","0.0","0.0","50.69","89.45618846686443","4.411666570186103","221.34206892611422"
"B-2860","dinocap","InChI=1S/C18H24N2O6/c1-7-8-15(21)26-16-13(18(5,6)11-17(2,3)4)9-12(19(22)23)10-14(16)20(24)25/h7-10H,11H2,1-6H3/b8-7+","RDUUEJDFJHUJFG-BQYQJAHWSA-N","C/C=C/C(=O)Oc1c(cc(cc1C(C)(C)CC(C)(C)C)[N+]([O-])=O)[N+]([O-])=O","-4.9595","0.0","1","G1","364.3980000000001","4.698300000000004","97.29780000000007","26.0","6.0","0.0","8.0","6.0","142.0","1.0","0.0","0.0","1.0","112.58000000000001","151.70212423462223","3.7355728719274954","759.680202737714"
"B-2861","2,2',4,4',6-pentachlorobiphenyl","InChI=1S/C12H5Cl5/c13-6-1-2-8(9(15)3-6)12-10(16)4-7(14)5-11(12)17/h1-5H","RKUAZJIXKHPFRK-UHFFFAOYSA-N","Clc1ccc(c(Cl)c1)c2c(Cl)cc(Cl)cc2Cl","-7.66","0.0","1","G1","326.437","6.620600000000001","76.92800000000003","17.0","0.0","0.0","5.0","1.0","88.0","2.0","0.0","0.0","2.0","0.0","124.00482845996935","2.683245985395738","554.0989383657761"
"B-2862","cyphenothrin","InChI=1S/C24H25NO3/c1-16(2)13-20-22(24(20,3)4)23(26)28-21(15-25)17-9-8-12-19(14-17)27-18-10-6-5-7-11-18/h5-14,20-22H,1-4H3","FJDPATXIBIBRIM-UHFFFAOYSA-N","CC(C)=CC1C(C(=O)OC(C#N)c2cccc(Oc3ccccc3)c2)C1(C)C","-7.5746","0.0","1","G1","375.4680000000001","5.825180000000005","107.59600000000005","28.0","4.0","0.0","4.0","6.0","144.0","2.0","1.0","1.0","3.0","59.32000000000001","165.95356075313305","1.7214814947399868","920.3664893126436"
"B-2863","fenpropathrin","InChI=1S/C22H23NO3/c1-21(2)19(22(21,3)4)20(24)26-18(14-23)15-9-8-12-17(13-15)25-16-10-6-5-7-11-16/h5-13,18-19H,1-4H3","XQUXKZZNEFRCAW-UHFFFAOYSA-N","CC1(C)C(C(=O)OC(C#N)c2cccc(Oc3ccccc3)c2)C1(C)C","-6.0248","0.68465","2","G2","349.43000000000006","5.268980000000004","98.45600000000006","26.0","4.0","0.0","4.0","5.0","134.0","2.0","1.0","1.0","3.0","59.32000000000001","153.91327955652412","1.7389462375181486","835.191123808645"
"B-2864","hexanoic acid, 4-ethyl-5-oxo-","InChI=1S/C8H14O3/c1-3-7(6(2)9)4-5-8(10)11/h7H,3-5H2,1-2H3,(H,10,11)","LXFXKKKZRKUZPC-UHFFFAOYSA-N","CCC(CCC(O)=O)C(C)=O","-0.451","0.0","1","G1","158.19699999999997","1.4664","41.3318","11.0","2.0","1.0","3.0","5.0","64.0","0.0","0.0","0.0","0.0","54.37","66.41112378088934","3.6976251278758037","151.41616035477006"
"B-2865","acetamide, 2-cyano-n-methyl-n- (methylamino)carb","InChI=1S/C6H9N3O2/c1-8-6(11)9(2)5(10)3-4-7/h3H2,1-2H3,(H,8,11)","DBEIAMRYPAJZHO-UHFFFAOYSA-N","CNC(=O)N(C)C(=O)CC#N","0.1709","0.0","1","G1","155.15699999999998","-0.30212000000000017","37.45570000000001","11.0","3.0","1.0","5.0","1.0","60.0","0.0","0.0","0.0","0.0","73.2","64.58928133518025","4.041171670850508","206.36316027281552"
"B-2866","1,1'-biphenyl, 2,3,3',4,4',5,5'-heptachloro-","InChI=1S/C12H3Cl7/c13-6-1-4(2-7(14)10(6)17)5-3-8(15)11(18)12(19)9(5)16/h1-3H","XUAWBXBYHDRROL-UHFFFAOYSA-N","Clc1cc(cc(Cl)c1Cl)c2cc(Cl)c(Cl)c(Cl)c2Cl","-8.7202","0.0","1","G1","395.3270000000001","7.9274000000000004","86.94800000000001","19.0","0.0","0.0","7.0","1.0","100.0","2.0","0.0","0.0","2.0","0.0","144.61136091373268","2.7278731369832103","640.6079666719705"
"B-2867","acetamide, 2-(acetylamino)-n-phenyl-","InChI=1S/C10H12N2O2/c1-8(13)11-7-10(14)12-9-5-3-2-4-6-9/h2-6H,7H2,1H3,(H,11,13)(H,12,14)","WTMBVEKOTAHGAB-UHFFFAOYSA-N","CC(=O)NCC(=O)Nc1ccccc1","-1.5678","0.0","1","G1","192.21800000000002","0.7611999999999997","53.75540000000002","14.0","2.0","2.0","4.0","3.0","74.0","1.0","0.0","0.0","1.0","58.2","82.31394014438703","2.3807618619125828","322.15370011260666"
"B-2868","oxadiargyl","InChI=1S/C15H14Cl2N2O3/c1-5-6-21-12-8-11(9(16)7-10(12)17)19-14(20)22-13(18-19)15(2,3)4/h1,7-8H,6H2,2-4H3","DVOODWOZJVJKQR-UHFFFAOYSA-N","CC(C)(C)C1=NN(C(=O)O1)c2cc(OCC#C)c(Cl)cc2Cl","-5.9648","0.0","1","G1","341.1940000000001","3.4418000000000024","85.14800000000002","22.0","5.0","0.0","7.0","3.0","116.0","2.0","0.0","0.0","2.0","57.260000000000005","137.3359675824804","2.5559924777358307","794.5847236910379"
"B-2869","1h-purine-2,6-dione, 1-ethyl-3,7-dihydro-3,7-dim","InChI=1S/C9H12N4O2/c1-4-13-8(14)6-7(10-5-11(6)2)12(3)9(13)15/h5H,4H2,1-3H3","KRVVZPXPQUPXJE-UHFFFAOYSA-N","CCN1C(=O)N(C)c2ncn(C)c2C1=O","-0.7190000000000001","0.0","1","G1","208.221","-0.5464000000000007","55.889000000000024","15.0","6.0","0.0","6.0","1.0","80.0","2.0","0.0","0.0","2.0","61.82","85.39389913254594","3.132031241976869","631.8253673508914"
"B-2870","ethyl 2-formamido-(phenylvinyl)acrylate","InChI=1S/C14H15NO3/c1-2-18-14(17)13(15-11-16)10-6-9-12-7-4-3-5-8-12/h3-11H,2H2,1H3,(H,15,16)","RZONVOYARNZXEO-UHFFFAOYSA-N","CCOC(=O)C(NC=O)=CC=Cc1ccccc1","-3.3483","0.0","1","G1","245.27800000000002","1.8928","69.39170000000003","18.0","3.0","1.0","4.0","6.0","94.0","1.0","0.0","0.0","1.0","55.4","105.95818558350379","2.7366156564840383","449.36672525206325"
"B-2871","tris(1,3-dichloropropyl) phosphate","InChI=1S/C9H15Cl6O4P/c10-4-1-7(13)17-20(16,18-8(14)2-5-11)19-9(15)3-6-12/h7-9H,1-6H2","DHNUXDYAOVSGII-UHFFFAOYSA-N","ClCCC(Cl)O[P](=O)(OC(Cl)CCCl)OC(Cl)CCCl","-3.6344","0.0","1","G1","430.90700000000004","5.725700000000003","85.79550000000003","20.0","4.0","0.0","11.0","12.0","122.0","0.0","0.0","0.0","0.0","44.760000000000005","148.36863166728816","4.688089102877845","254.8173499961941"
"B-2872","1,1'-biphenyl, 2,2',3,3',4,5',6-heptachloro-","InChI=1S/C12H3Cl7/c13-4-1-5(10(17)7(15)2-4)9-6(14)3-8(16)11(18)12(9)19/h1-3H","KJBDZJFSYQUNJT-UHFFFAOYSA-N","Clc1cc(Cl)c(Cl)c(c1)c2c(Cl)cc(Cl)c(Cl)c2Cl","-8.68","0.0","1","G1","395.3270000000001","7.9274000000000004","86.94800000000001","19.0","0.0","0.0","7.0","1.0","100.0","2.0","0.0","0.0","2.0","0.0","144.61136091373268","2.834076377248831","663.8579666719705"
"B-2873","2,2',3,3',4,5',6,6'-octachlorobiphenyl","InChI=1S/C12H2Cl8/c13-3-1-6(16)11(19)12(20)7(3)8-9(17)4(14)2-5(15)10(8)18/h1-2H","LJQOBQLZTUSEJA-UHFFFAOYSA-N","Clc1cc(Cl)c(c(Cl)c1Cl)c2c(Cl)c(Cl)cc(Cl)c2Cl","-9.1999","0.0","1","G1","429.77200000000016","8.580799999999998","91.95799999999998","20.0","0.0","0.0","8.0","1.0","106.0","2.0","0.0","0.0","2.0","0.0","154.91462714061439","2.9278298356263366","681.3291147319977"
"B-2875","pendimethalin","InChI=1S/C13H19N3O4/c1-5-10(6-2)14-12-11(15(17)18)7-8(3)9(4)13(12)16(19)20/h7,10,14H,5-6H2,1-4H3","CHIFOSRWCNZCFN-UHFFFAOYSA-N","CCC(CC)Nc1c(cc(C)c(C)c1[N+]([O-])=O)[N+]([O-])=O","-5.9721","0.0189499999999998","2","G3","281.312","3.720340000000003","77.21750000000002","20.0","5.0","1.0","7.0","6.0","110.0","1.0","0.0","0.0","1.0","98.31","116.84181154888084","3.5394583935570507","538.9080729934254"
"B-2876","methoprene","InChI=1S/C19H34O3/c1-15(2)22-18(20)14-17(4)11-8-10-16(3)12-9-13-19(5,6)21-7/h8,11,14-16H,9-10,12-13H2,1-7H3/b11-8+,17-14+","NFGXHKASABOEEW-LDRANXPESA-N","COC(C)(C)CCCC(C)C\C=C\C(C)=C\C(=O)OC(C)C","-5.3459","0.0","1","G1","310.47800000000007","5.062000000000006","92.84500000000007","22.0","3.0","0.0","3.0","10.0","128.0","0.0","0.0","0.0","0.0","35.53","136.31761558165755","4.052073192620189","378.1415344089713"
"B-2877","2-pteridinamine, n,n-dimethyl-","InChI=1S/C8H9N5/c1-13(2)8-11-5-6-7(12-8)10-4-3-9-6/h3-5H,1-2H3","JXKUCNDDDQEMSS-UHFFFAOYSA-N","CN(C)c1ncc2nccnc2n1","0.3586","0.0","1","G1","175.195","0.4857999999999998","49.45500000000001","13.0","5.0","0.0","5.0","1.0","66.0","2.0","0.0","0.0","2.0","54.800000000000004","75.48137747401479","2.61987386972831","425.5588295570089"
"B-2880","sparticide","InChI=1S/C10H4Cl2FNO2/c11-7-8(12)10(16)14(9(7)15)6-3-1-5(13)2-4-6/h1-4H","IPENDKRRWFURRE-UHFFFAOYSA-N","Fc1ccc(cc1)N2C(=O)C(=C(Cl)C2=O)Cl","-4.6442","0.0","1","G1","260.051","2.3881000000000006","57.62500000000001","16.0","2.0","0.0","6.0","1.0","82.0","1.0","0.0","1.0","2.0","37.38","100.05068311835038","2.4190050970009014","486.05524397811956"
"B-2881","4-methoxy-3,3'-dimethylbenzophenone","InChI=1S/C16H16O2/c1-11-5-4-6-13(9-11)16(17)14-7-8-15(18-3)12(2)10-14/h4-10H,1-3H3","BWPYBAJTDILQPY-UHFFFAOYSA-N","COc1ccc(cc1C)C(=O)c2cccc(C)c2","-5.0797","0.0","1","G1","240.302","3.543040000000002","72.34250000000003","18.0","2.0","0.0","2.0","3.0","92.0","2.0","0.0","0.0","2.0","26.3","107.22333311269809","2.3725310148526257","585.4008737678793"
"B-2882","d-mannose, (aminocarbonyl)hydrazone","InChI=1S/C7H15N3O6/c8-7(16)10-9-1-3(12)5(14)6(15)4(13)2-11/h1,3-6,11-15H,2H2,(H3,8,10,16)/t3-,4-,5-,6-/m1/s1","NOUQGOYNEGWDCZ-KVTDHHQDSA-N","NC(=O)NN=C[C@@H](O)[C@@H](O)[C@H](O)[C@H](O)CO","-0.53","0.0","1","G1","237.21200000000002","-3.9236","52.32410000000002","16.0","7.0","7.0","9.0","6.0","94.0","0.0","0.0","0.0","0.0","168.63","90.81680596194887","4.2091137290224685","248.27666252784255"
"B-2883","metamitron","InChI=1S/C10H10N4O/c1-7-12-13-9(10(15)14(7)11)8-5-3-2-4-6-8/h2-6H,11H2,1H3","VHCNQEUWZYOAEV-UHFFFAOYSA-N","CC1=NN=C(c2ccccc2)C(=O)N1N","-2.0506","0.0","1","G1","202.21699999999998","0.3275199999999999","56.615400000000015","15.0","5.0","1.0","5.0","1.0","76.0","2.0","0.0","0.0","2.0","73.8","86.16235725508864","2.6602820094110218","532.8638064380169"
"B-2885","1,1'-biphenyl, 2,3',4',6-tetrachloro-","InChI=1S/C12H6Cl4/c13-8-5-4-7(6-11(8)16)12-9(14)2-1-3-10(12)15/h1-6H","WYVBETQIUHPLFO-UHFFFAOYSA-N","Clc1ccc(cc1Cl)c2c(Cl)cccc2Cl","-7.0199","0.0","1","G1","291.99199999999996","5.967200000000001","71.91800000000002","16.0","0.0","0.0","4.0","1.0","82.0","2.0","0.0","0.0","2.0","0.0","113.70156223308769","2.630690903528491","514.2871240740591"
"B-2886","1,1'-biphenyl, 2,2',3,6'-tetrachloro-","InChI=1S/C12H6Cl4/c13-8-4-2-1-3-7(8)11-9(14)5-6-10(15)12(11)16/h1-6H","VHGHHZZTMJLTJX-UHFFFAOYSA-N","Clc1ccc(Cl)c(c1Cl)c2ccccc2Cl","-6.3001","0.0","1","G1","291.9920000000001","5.967200000000002","71.91800000000002","16.0","0.0","0.0","4.0","1.0","82.0","2.0","0.0","0.0","2.0","0.0","113.70156223308769","2.739119029603201","534.5371240740591"
"B-2887","bupirimate","InChI=1S/C13H24N4O3S/c1-6-8-9-11-10(3)15-13(14-7-2)16-12(11)20-21(18,19)17(4)5/h6-9H2,1-5H3,(H,14,15,16)","DSKJPMWIHSOYEA-UHFFFAOYSA-N","CCCCc1c(C)nc(NCC)nc1O[S](=O)(=O)N(C)C","-4.1579","0.0","1","G1","316.4270000000001","1.74462","82.77950000000004","21.0","6.0","1.0","8.0","8.0","120.0","1.0","0.0","0.0","1.0","84.42","126.54819896275083","3.2292045367587514","573.0242589867888"
"B-2888","acetamide, n-(4-ethoxy-2-methylphenyl)-","InChI=1S/C11H15NO2/c1-4-14-10-5-6-11(8(2)7-10)12-9(3)13/h5-7H,4H2,1-3H3,(H,12,13)","GWGGYWFWMFMBKT-UHFFFAOYSA-N","CCOc1ccc(NC(C)=O)c(C)c1","-1.839","0.0","1","G1","193.24599999999998","2.35212","56.65170000000003","14.0","2.0","1.0","3.0","3.0","76.0","1.0","0.0","0.0","1.0","38.33","84.08104320463869","2.836874086228987","334.05945825214303"
"B-2889","tricyclazole","InChI=1S/C9H7N3S/c1-6-3-2-4-7-8(6)12-5-10-11-9(12)13-7/h2-5H,1H3","DQJCHOQLCLEDLL-UHFFFAOYSA-N","Cc1cccc2sc3nncn3c12","-2.0729","0.0","1","G1","189.24300000000002","2.25242","53.10700000000001","13.0","4.0","0.0","4.0","0.0","64.0","3.0","0.0","0.0","3.0","30.19","78.64428296155039","2.683285650583276","578.5955126788882"
"B-2890","benzaldehyde, 4-hydroxy-5-methoxy-2-methyl-","InChI=1S/C9H10O3/c1-6-3-8(11)9(12-2)4-7(6)5-10/h3-5,11H,1-2H3","MNMCHJAOXXQRID-UHFFFAOYSA-N","COc1cc(C=O)c(C)cc1O","-2.7435","0.0","1","G1","166.176","1.5217199999999997","44.78330000000002","12.0","3.0","1.0","3.0","2.0","64.0","1.0","0.0","0.0","1.0","46.53","70.59553054443344","3.2644189670751427","304.8871119487945"
"B-2891","nadolol","InChI=1S/C17H27NO4/c1-17(2,3)18-9-12(19)10-22-16-6-4-5-11-7-14(20)15(21)8-13(11)16/h4-6,12,14-15,18-21H,7-10H2,1-3H3/t12?,14-,15+/m1/s1","VWPOSFSPZNDTMJ-UCWKZMIHSA-N","CC(C)(C)NCC(O)COc1cccc2C[C@@H](O)[C@@H](O)Cc12","-1.5699","0.0","1","G1","309.40600000000006","0.6347999999999998","85.12110000000003","22.0","5.0","4.0","5.0","5.0","124.0","1.0","0.0","1.0","2.0","81.95","131.4860438940334","1.9518277980661054","497.9225718548434"
"B-2893","isazofos","InChI=1S/C9H17ClN3O3PS/c1-5-14-17(18,15-6-2)16-9-11-8(10)13(12-9)7(3)4/h7H,5-6H2,1-4H3","XRHGWAGWAHHFLF-UHFFFAOYSA-N","CCO[P](=S)(OCC)Oc1nn(C(C)C)c(Cl)n1","-3.6577","0.16885000000000017","2","G3","313.747","3.1887000000000016","73.58200000000002","18.0","7.0","0.0","9.0","7.0","104.0","1.0","0.0","0.0","1.0","58.4","116.83670937679587","2.8750624593190346","430.6923928886501"
"B-2894","bifenox","InChI=1S/C14H9Cl2NO5/c1-21-14(18)10-7-9(3-4-12(10)17(19)20)22-13-5-2-8(15)6-11(13)16/h2-7H,1H3","SUSRORUBZHMPCO-UHFFFAOYSA-N","COC(=O)c1cc(Oc2ccc(Cl)cc2Cl)ccc1[N+]([O-])=O","-5.9343","0.02784999999999993","2","G3","342.1340000000001","4.480500000000003","80.97190000000005","22.0","5.0","0.0","8.0","4.0","114.0","2.0","0.0","0.0","2.0","78.66999999999999","134.86650228967486","2.399020158429125","748.008210141674"
"B-2895","kinoprene","InChI=1S/C18H28O2/c1-6-13-20-18(19)14-17(5)12-8-11-16(4)10-7-9-15(2)3/h1,8,12,14-16H,7,9-11,13H2,2-5H3/b12-8+,17-14+","FZRBKIRIBLNOAM-WHVZTFIZSA-N","CC(C)CCCC(C)C\C=C\C(C)=C\C(=O)OCC#C","-4.7239","0.0","1","G1","276.42","4.517800000000005","85.15900000000005","20.0","2.0","0.0","2.0","9.0","112.0","0.0","0.0","0.0","0.0","26.3","123.83835362961331","3.9510489288454957","369.3696859240011"
"B-2896","daimuron","InChI=1S/C17H20N2O/c1-13-9-11-15(12-10-13)18-16(20)19-17(2,3)14-7-5-4-6-8-14/h4-12H,1-3H3,(H2,18,19,20)","NNYRZQHKCHEXSD-UHFFFAOYSA-N","Cc1ccc(NC(=O)NC(C)(C)c2ccccc2)cc1","-5.3495","0.0","1","G1","268.36","4.051820000000003","82.80140000000004","20.0","1.0","2.0","3.0","3.0","104.0","2.0","0.0","0.0","2.0","41.13","119.57445436480391","2.0209285915556108","573.6988161984985"
"B-2897","methyldymron","InChI=1S/C17H20N2O/c1-17(2,14-10-6-4-7-11-14)18-16(20)19(3)15-12-8-5-9-13-15/h4-13H,1-3H3,(H,18,20)","FMINYZXVCTYSNY-UHFFFAOYSA-N","CN(C(=O)NC(C)(C)c1ccccc1)c2ccccc2","-3.3495","0.0","1","G1","268.36","3.767700000000003","82.84470000000005","20.0","1.0","1.0","3.0","3.0","104.0","2.0","0.0","0.0","2.0","32.34","119.78442585139925","2.114717198440841","564.0585798448997"
"B-2898","2,2',3,3',4,4',5,6'-octachlorobiphenyl","InChI=1S/C12H2Cl8/c13-4-2-6(15)9(17)11(19)7(4)3-1-5(14)10(18)12(20)8(3)16/h1-2H","BQFCCUSDZLKBJG-UHFFFAOYSA-N","Clc1cc(Cl)c(c(Cl)c1Cl)c2cc(Cl)c(Cl)c(Cl)c2Cl","-9.42","0.0","1","G1","429.77200000000016","8.580799999999998","91.95799999999998","20.0","0.0","0.0","8.0","1.0","106.0","2.0","0.0","0.0","2.0","0.0","154.91462714061439","2.8607217923995187","707.5791147319978"
"B-2899","oxyfluorfen","InChI=1S/C15H11ClF3NO4/c1-2-23-14-8-10(4-5-12(14)20(21)22)24-13-6-3-9(7-11(13)16)15(17,18)19/h3-8H,2H2,1H3","OQMBBFQZGJFLBU-UHFFFAOYSA-N","CCOc1cc(Oc2ccc(cc2Cl)C(F)(F)F)ccc1[N+]([O-])=O","-6.4939","0.03204999999999991","2","G3","361.70300000000003","5.458000000000003","80.79340000000002","24.0","4.0","0.0","9.0","5.0","128.0","2.0","0.0","0.0","2.0","61.6","139.26326228592475","2.310390332223276","764.8697632211209"
"B-2900","2-propanol, 1,3-dipropoxy-","InChI=1S/C9H20O3/c1-3-5-11-7-9(10)8-12-6-4-2/h9-10H,3-8H2,1-2H3","KLDDZFJSRPXUIY-UHFFFAOYSA-N","CCCOCC(O)COCCC","-0.3431","0.0","1","G1","176.25599999999994","1.2005","48.22680000000003","12.0","3.0","1.0","3.0","8.0","74.0","0.0","0.0","0.0","0.0","38.69","74.68011215421217","3.0417575996990527","75.84283310353014"
"B-2901","triadimefon","InChI=1S/C14H16ClN3O2/c1-14(2,3)12(19)13(18-9-16-8-17-18)20-11-6-4-10(15)5-7-11/h4-9,13H,1-3H3","WURBVZBTWMNKQT-UHFFFAOYSA-N","CC(C)(C)C(=O)C(Oc1ccc(Cl)cc1)n2cncn2","-3.6137","0.0","1","G1","293.754","3.1243000000000016","75.60100000000003","20.0","5.0","0.0","6.0","4.0","106.0","2.0","0.0","0.0","2.0","57.010000000000005","122.08336500628032","2.281223550397853","573.4665262416382"
"B-2902","propanamide, 2-oxo-n-phenyl-","InChI=1S/C9H9NO2/c1-7(11)9(12)10-8-5-3-2-4-6-8/h2-6H,1H3,(H,10,12)","VOKLUGVCKPXDJE-UHFFFAOYSA-N","CC(=O)C(=O)Nc1ccccc1","-1.3676","0.0","1","G1","163.176","1.2141","45.75270000000002","12.0","2.0","1.0","3.0","2.0","62.0","1.0","0.0","0.0","1.0","46.17","70.39913584638235","2.6503977732748716","292.65666195744836"
"B-2903","valeric acid, 5-(benzenesulfonyl-methyl-amino)-","InChI=1S/C12H17NO4S/c1-13(10-6-5-9-12(14)15)18(16,17)11-7-3-2-4-8-11/h2-4,7-8H,5-6,9-10H2,1H3,(H,14,15)","WFADZGFZNJEISA-UHFFFAOYSA-N","CN(CCCCC(O)=O)[S](=O)(=O)c1ccccc1","-1.5585","0.0","1","G1","271.338","1.562","67.74460000000003","18.0","3.0","1.0","6.0","7.0","100.0","1.0","0.0","0.0","1.0","74.68","107.09742122073487","2.5559516996753286","484.05869136854454"
"B-2904","3-pyridinecarboxylic acid, pentyl ester","InChI=1S/C11H15NO2/c1-2-3-4-8-14-11(13)10-6-5-7-12-9-10/h5-7,9H,2-4,8H2,1H3","SYIRQWIOOCVBTC-UHFFFAOYSA-N","CCCCCOC(=O)c1cccnc1","-2.3776","0.0","1","G1","193.246","2.4286000000000003","54.044500000000035","14.0","3.0","0.0","3.0","5.0","76.0","1.0","0.0","0.0","1.0","39.19","84.11577111637375","2.2907968539797117","271.8758373723615"
"B-2905","phenol, 4-(2-aminoethyl)-2-nitro-","InChI=1S/C8H10N2O3/c9-4-3-6-1-2-8(11)7(5-6)10(12)13/h1-2,5,11H,3-4,9H2","IUCYCHQMRZWPGT-UHFFFAOYSA-N","NCCc1ccc(O)c(c1)[N+]([O-])=O","-1.3399","0.0","1","G1","182.17899999999997","0.8015999999999999","47.51960000000001","13.0","4.0","2.0","5.0","3.0","70.0","1.0","0.0","0.0","1.0","89.38999999999999","74.9483875199987","3.0373108455333924","325.1652197817895"
"B-2906","2,4(1h,3h)-pteridinedione, 1,6,7-trimethyl-","InChI=1S/C9H10N4O2/c1-4-5(2)11-7-6(10-4)8(14)12-9(15)13(7)3/h1-3H3,(H,12,14,15)","XCOSZAUDQCILGD-UHFFFAOYSA-N","CN1C(=O)NC(=O)c2nc(C)c(C)nc12","-2.1129","0.0","1","G1","206.20499999999998","-0.36636000000000046","54.873700000000014","15.0","5.0","1.0","6.0","0.0","78.0","2.0","0.0","0.0","2.0","80.64","84.61950160489089","3.1082051415745644","653.4355357375232"