"ID","Name","InChI","InChIKey","SMILES","Solubility","SD","Ocurrences","Group","MolWt","MolLogP","MolMR","HeavyAtomCount","NumHAcceptors","NumHDonors","NumHeteroatoms","NumRotatableBonds","NumValenceElectrons","NumAromaticRings","NumSaturatedRings","NumAliphaticRings","RingCount","TPSA","LabuteASA","BalabanJ","BertzCT"
"B-1916","p-acetoxyacetanilide","InChI=1S/C10H11NO3/c1-7(12)11-9-3-5-10(6-4-9)14-8(2)13/h3-6H,1-2H3,(H,11,12)","UJAOSPFULOFZRR-UHFFFAOYSA-N","CC(=O)Nc1ccc(OC(C)=O)cc1","-1.9076","0.0","1","G1","193.20199999999997","1.5702999999999998","52.054700000000025","14.0","3.0","1.0","4.0","2.0","74.0","1.0","0.0","0.0","1.0","55.4","81.87762319028586","2.679983362198753","307.8896728870035"
"B-1917","2,4(1h,3h)-pteridinedione, 1,3,6,7-tetramethyl-","InChI=1S/C10H12N4O2/c1-5-6(2)12-8-7(11-5)9(15)14(4)10(16)13(8)3/h1-4H3","RIUBVVOTTNDDIR-UHFFFAOYSA-N","CN1C(=O)N(C)c2nc(C)c(C)nc2C1=O","-1.3429","0.0","1","G1","220.23199999999997","-0.3559600000000003","59.494000000000014","16.0","6.0","0.0","6.0","0.0","84.0","2.0","0.0","0.0","2.0","69.78","91.19441520588282","3.1551785144362596","696.5019640064886"
"B-1918","butanoic acid, 4-nitrophenyl ester","InChI=1S/C10H11NO4/c1-2-3-10(12)15-9-6-4-8(5-7-9)11(13)14/h4-7H,2-3H2,1H3","DVDUMIQZEUTAGK-UHFFFAOYSA-N","CCCC(=O)Oc1ccc(cc1)[N+]([O-])=O","-3.9404","0.0","1","G1","209.20099999999996","2.3003","53.63940000000002","15.0","4.0","0.0","5.0","4.0","80.0","1.0","0.0","0.0","1.0","69.44","86.81921462913384","2.6416397623371424","358.19006718030624"
"B-1919","1,2-naphthalenedione, 1-oxime","InChI=1S/C10H7NO2/c12-9-6-5-7-3-1-2-4-8(7)10(9)11-13/h1-6,12H","YXAOOTNFFAQIPZ-UHFFFAOYSA-N","Oc1ccc2ccccc2c1N=O","-2.9374","0.3494499999999998","2","G3","173.17099999999996","2.9433000000000007","51.06780000000001","13.0","3.0","1.0","3.0","1.0","64.0","2.0","0.0","0.0","2.0","49.660000000000004","74.60203338765866","2.9117844920054865","465.4314410863231"
"B-1920","4,4'-dicyano-4,4'azo-di-valeric acid","InChI=1S/C12H16N4O4/c1-11(7-13,5-3-9(17)18)15-16-12(2,8-14)6-4-10(19)20/h3-6H2,1-2H3,(H,17,18)(H,19,20)/p-2/t11-,12+","VFXXTYGQYWRHJP-TXEJJXNPSA-L","C[C@@](CCC([O-])=O)(N=N[C@](C)(CCC([O-])=O)C#N)C#N","-2.0083","0.2661598409500001","2","G3","278.268","-0.936639999999999","61.37400000000003","20.0","8.0","0.0","8.0","8.0","108.0","0.0","0.0","0.0","0.0","152.55999999999997","115.89706319809832","4.92042108277526","446.6662405501103"
"B-1921","azinphos ethyl","InChI=1S/C12H16N3O3PS2/c1-3-17-19(20,18-4-2)21-9-15-12(16)10-7-5-6-8-11(10)13-14-15/h5-8H,3-4,9H2,1-2H3","RQVGAIADHNPSME-UHFFFAOYSA-N","CCO[P](=S)(OCC)SCN1N=Nc2ccccc2C1=O","-4.5171","0.0","1","G1","345.3860000000001","2.779700000000001","88.92600000000004","21.0","8.0","0.0","9.0","7.0","114.0","2.0","0.0","0.0","2.0","66.24000000000001","131.29716584208654","2.2177860455800626","712.2050233315528"
"B-1922","6-aminochrysene","InChI=1S/C18H13N/c19-18-11-17-13-6-2-1-5-12(13)9-10-15(17)14-7-3-4-8-16(14)18/h1-11H,19H2","KIVUHCNVDWYUNP-UHFFFAOYSA-N","Nc1cc2c3ccccc3ccc2c4ccccc14","-6.1958","0.0","1","G1","243.309","4.728400000000002","83.37240000000004","19.0","1.0","1.0","1.0","0.0","90.0","4.0","0.0","0.0","4.0","26.02","110.8162874117153","2.3371227357502993","922.3919838784873"
"B-1923","3,5-bis(tert-butyl)phenol methylcarbamate","InChI=1S/C16H25NO2/c1-15(2,3)11-8-12(16(4,5)6)10-13(9-11)19-14(18)17-7/h8-10H,1-7H3,(H,17,18)","SLZWBCGZQRRUNG-UHFFFAOYSA-N","CNC(=O)Oc1cc(cc(c1)C(C)(C)C)C(C)(C)C","-4.2445","0.0","1","G1","263.381","3.999800000000003","78.92570000000005","19.0","2.0","1.0","3.0","1.0","106.0","1.0","0.0","0.0","1.0","38.33","115.90575377662171","3.286723187669047","432.36776915934104"
"B-1924","1,4-dichloro-2,5-dimethoxybenzene","InChI=1S/C8H8Cl2O2/c1-11-7-3-6(10)8(12-2)4-5(7)9/h3-4H,1-2H3","PFIADAMVCJPXSF-UHFFFAOYSA-N","COc1cc(Cl)c(OC)cc1Cl","-4.413","0.0","1","G1","207.056","3.010600000000002","49.566000000000024","12.0","2.0","0.0","4.0","2.0","66.0","1.0","0.0","0.0","1.0","18.46","80.99491026106729","3.164874105084725","256.88150377072884"
"B-1925",".beta.-alanine, n-methyl-","InChI=1S/C4H9NO2/c1-5-3-2-4(6)7/h5H,2-3H2,1H3,(H,6,7)","VDIPNVCWMXZNFY-UHFFFAOYSA-N","CNCCC(O)=O","-0.0543","0.0","1","G1","103.12099999999998","-0.31949999999999995","26.17949999999999","7.0","2.0","2.0","3.0","3.0","42.0","0.0","0.0","0.0","0.0","49.33","42.339695406867186","2.8219389370591843","62.710134480364864"
"B-1926","2-chlorodiphenyl ether","InChI=1S/C12H9ClO/c13-11-8-4-5-9-12(11)14-10-6-2-1-3-7-10/h1-9H","IPBRZLMGGXHHMS-UHFFFAOYSA-N","Clc1ccccc1Oc2ccccc2","-4.7796","0.0","1","G1","204.656","4.1323000000000025","57.96800000000003","14.0","1.0","0.0","2.0","2.0","70.0","2.0","0.0","0.0","2.0","9.23","87.90530878194956","2.2369588843757167","411.6767229032693"
"B-1927","phosphoric acid, butyl diethyl ester","InChI=1S/C8H19O4P/c1-4-7-8-12-13(9,10-5-2)11-6-3/h4-8H2,1-3H3","DWSYMNWJOYKKCK-UHFFFAOYSA-N","CCCCO[P](=O)(OCC)OCC","-1.1466","0.0","1","G1","210.20999999999995","2.9842000000000013","51.71850000000004","13.0","4.0","0.0","5.0","8.0","80.0","0.0","0.0","0.0","0.0","44.760000000000005","80.18409219160154","3.8459343998916427","150.2230163877574"
"B-1928","leucine, ethyl ester","InChI=1S/C8H17NO2/c1-4-11-8(10)7(9)5-6(2)3/h6-7H,4-5,9H2,1-3H3/t7-/m0/s1","QIGLJVBIRIXQRN-ZETCQYMHSA-N","CCOC(=O)[C@@H](N)CC(C)C","-0.5606","0.0","1","G1","159.229","0.9228999999999997","44.06340000000001","11.0","3.0","1.0","3.0","4.0","66.0","0.0","0.0","0.0","0.0","52.32","67.90880385516914","3.636832773235095","123.26046567326583"
"B-1929","n,n'-bis-phenylacetyl-cystine","InChI=1S/C22H24N2O6S2/c25-19(11-15-7-3-1-4-8-15)23-17(21(27)28)13-31-32-14-18(22(29)30)24-20(26)12-16-9-5-2-6-10-16/h1-10,17-18H,11-14H2,(H,23,25)(H,24,26)(H,27,28)(H,29,30)","DWRCRIMPBCLETK-UHFFFAOYSA-N","OC(=O)C(CSSCC(NC(=O)Cc1ccccc1)C(O)=O)NC(=O)Cc2ccccc2","-1.8330000000000002","0.0","1","G1","476.5760000000002","1.992","124.34100000000005","32.0","6.0","4.0","10.0","13.0","170.0","2.0","0.0","0.0","2.0","132.8","193.11838087839038","1.7642175732961465","835.6517637272246"
"B-1930","diquat","InChI=1S/C12H12N2/c1-3-7-13-9-10-14-8-4-2-6-12(14)11(13)5-1/h1-8H,9-10H2/q+2","SYJFEGQWDCRVNX-UHFFFAOYSA-N","C1C[n+]2ccccc2c3cccc[n+]13","-3.425","0.0","1","G1","184.242","0.9421999999999999","52.26800000000003","14.0","0.0","0.0","2.0","0.0","68.0","2.0","0.0","1.0","3.0","7.76","83.07178933590865","2.2875830783649636","431.75287485739244"
"B-1931","4,5-dichloroveratrole","InChI=1S/C8H8Cl2O2/c1-11-7-3-5(9)6(10)4-8(7)12-2/h3-4H,1-2H3","RJYXLZQZBLGBOM-UHFFFAOYSA-N","COc1cc(Cl)c(Cl)cc1OC","-3.4588","0.0","1","G1","207.056","3.010600000000002","49.566000000000024","12.0","2.0","0.0","4.0","2.0","66.0","1.0","0.0","0.0","1.0","18.46","80.99491026106728","3.190438801224836","257.63150377072884"
"B-1932","endothion","InChI=1S/C9H13O6PS/c1-12-9-5-15-7(4-8(9)10)6-17-16(11,13-2)14-3/h4-5H,6H2,1-3H3","YCAGGFXSFQFVQL-UHFFFAOYSA-N","COC1=COC(=CC1=O)CS[P](=O)(OC)OC","0.7286","0.0","1","G1","280.238","2.2824999999999998","64.44950000000003","17.0","7.0","0.0","8.0","6.0","96.0","1.0","0.0","0.0","1.0","74.97","102.53278125448846","2.737375681509143","462.79903741452915"
"B-1933","phosphonic acid, (1-hydroxyethylidene)bis-","InChI=1S/C2H8O7P2/c1-2(3,10(4,5)6)11(7,8)9/h3H,1H3,(H2,4,5,6)(H2,7,8,9)","DBVJJBKOTRCVKF-UHFFFAOYSA-N","CC(O)([P](O)(O)=O)[P](O)(O)=O","0.5249","0.0","1","G1","206.027","-0.9922000000000002","34.711999999999996","11.0","3.0","5.0","9.0","2.0","68.0","0.0","0.0","0.0","0.0","135.29","62.001242735901926","5.079498628795793","206.82512869394384"
"B-1935","trans-2,5-dimethylpiperazine","InChI=1S/C6H14N2/c1-5-3-8-6(2)4-7-5/h5-8H,3-4H2,1-2H3/p+2/t5-,6+","NSMWYRLQHIXVAP-OLQVQODUSA-P","C[C@H]1C[NH2+][C@H](C)C[NH2+]1","0.4864","0.0","1","G1","116.208","-2.096199999999998","32.50879999999999","8.0","0.0","2.0","2.0","0.0","48.0","0.0","1.0","1.0","1.0","33.22","50.65785481349944","2.1923771580194713","54.928786893420316"
"B-1936","4-oxo-pent-2-enoic acid","InChI=1S/C5H6O3/c1-4(6)2-3-5(7)8/h2-3H,1H3,(H,7,8)","XGTKSWVCNVUVHG-UHFFFAOYSA-N","CC(=O)C=CC(O)=O","-0.2332","0.0","1","G1","114.09999999999998","0.2161999999999999","27.45679999999999","8.0","2.0","1.0","3.0","2.0","44.0","0.0","0.0","0.0","0.0","54.37","46.62669440551526","3.668626461933803","118.60920862591125"
"B-1937","undecanoic acid, 11-bromo-","InChI=1S/C11H21BrO2/c12-10-8-6-4-2-1-3-5-7-9-11(13)14/h1-10H2,(H,13,14)","IUDGNRWYNOEIKF-UHFFFAOYSA-N","OC(=O)CCCCCCCCCCBr","-3.699","0.0","1","G1","265.1909999999999","3.9768000000000034","62.98280000000005","14.0","1.0","1.0","3.0","10.0","84.0","0.0","0.0","0.0","0.0","37.3","95.21197562967679","2.884064614706359","137.24922110379617"
"B-1938","butanoic acid, 2-amino-, (.+-.)-","InChI=1S/C4H9NO2/c1-2-3(5)4(6)7/h3H,2,5H2,1H3,(H,6,7)","QWCKQJZIFLGMSD-UHFFFAOYSA-N","CCC(N)C(O)=O","0.2868","0.020789580723686245","3","G5","103.12099999999998","-0.19169999999999998","25.902199999999997","7.0","2.0","2.0","3.0","2.0","42.0","0.0","0.0","0.0","0.0","63.32","42.129723920271864","3.3434170589539596","72.09004635215048"
"B-1939","1-chloro-1,2,2,2-tetrafluoroethane","InChI=1S/C2HClF4/c3-1(4)2(5,6)7/h1H","BOUGCJDAQLKBQH-UHFFFAOYSA-N","FC(Cl)C(F)(F)F","-1.959","0.0","1","G1","136.475","2.0831","16.804000000000002","7.0","0.0","0.0","5.0","0.0","44.0","0.0","0.0","0.0","0.0","0.0","42.069600980812766","3.541196965079901","55.20035947603792"
"B-1940","m-chloroanisole","InChI=1S/C7H7ClO/c1-9-7-4-2-3-6(8)5-7/h2-5H,1H3","YUKILTJWFRTXGB-UHFFFAOYSA-N","COc1cccc(Cl)c1","-2.783","0.0","1","G1","142.58499999999998","2.3486000000000002","38.00400000000001","9.0","1.0","0.0","2.0","1.0","48.0","1.0","0.0","0.0","1.0","9.23","59.213156690282126","2.9368661023365914","197.86256853719752"
"B-1941","chlorpyrifos","InChI=1S/C9H11Cl3NO3PS/c1-3-14-17(18,15-4-2)16-9-7(11)5-6(10)8(12)13-9/h5H,3-4H2,1-2H3","SBPBAQFWLVIOKP-UHFFFAOYSA-N","CCO[P](=S)(OCC)Oc1nc(Cl)c(Cl)cc1Cl","-5.4956","0.11178089679765886","3","G5","350.591","4.718100000000002","77.43200000000002","18.0","5.0","0.0","9.0","6.0","102.0","1.0","0.0","0.0","1.0","40.58","125.74118203040851","3.006125183376143","464.6162368766505"
"B-1942","cyclopentanecarbonitrile, 2-oxo-","InChI=1S/C6H7NO/c7-4-5-2-1-3-6(5)8/h5H,1-3H2","IPMQSLPLJDKUPI-UHFFFAOYSA-N","O=C1CCCC1C#N","-0.3567","0.0","1","G1","109.128","0.87918","27.96099999999999","8.0","2.0","0.0","2.0","0.0","42.0","0.0","1.0","1.0","1.0","40.86","48.112232227795836","2.579519093745178","145.09775004326937"
"B-1943","carbamic acid, diethylthio-, s-ethyl ester","InChI=1S/C7H15NOS/c1-4-8(5-2)7(9)10-6-3/h4-6H2,1-3H3","WARIWGPBHKPYON-UHFFFAOYSA-N","CCSC(=O)N(CC)CC","-1.6917","0.0","1","G1","161.26999999999998","2.2013","46.44900000000003","10.0","2.0","0.0","3.0","3.0","60.0","0.0","0.0","0.0","0.0","20.310000000000002","66.97336950982157","3.649620758476938","101.7792291661388"
"B-1944","phosphonic acid, phenyl, di-2-propenyl ester","InChI=1S/C12H15O3P/c1-3-10-14-16(13,15-11-4-2)12-8-6-5-7-9-12/h3-9H,1-2,10-11H2","YSRMRWIQPVDQBV-UHFFFAOYSA-N","C=CCO[P](=O)(OCC=C)c1ccccc1","-2.8999","0.0","1","G1","238.22299999999998","2.9102000000000015","65.98050000000003","16.0","3.0","0.0","4.0","7.0","86.0","1.0","0.0","0.0","1.0","35.53","95.93188061686973","2.894366273611782","370.5101632496788"
"B-1945","phosphinic acid, dibutyl-, butyl ester","InChI=1S/C12H27O2P/c1-4-7-10-14-15(13,11-8-5-2)12-9-6-3/h4-12H2,1-3H3","GXYBSEVPLCHEBL-UHFFFAOYSA-N","CCCCO[P](=O)(CCCC)CCCC","-1.7166","0.0","1","G1","234.3199999999999","4.6814000000000044","68.01650000000006","15.0","2.0","0.0","3.0","10.0","92.0","0.0","0.0","0.0","0.0","26.3","95.24342967391974","3.9583424513685084","168.4609327209684"
"B-1946","3,5-dichloro-2,6-dimethyl-4-pyridinol","InChI=1S/C7H7Cl2NO/c1-3-5(8)7(11)6(9)4(2)10-3/h1-2H3,(H,10,11)","ZDPIZLCVJAAHHR-UHFFFAOYSA-N","CC1=C(Cl)C(=O)C(=C(C)N1)Cl","-4.2834","0.0","1","G1","192.04500000000002","2.29854","46.556700000000006","11.0","1.0","1.0","4.0","0.0","60.0","1.0","0.0","0.0","1.0","32.86","74.1489898830438","3.592824831592955","313.77918974581615"
"B-1947","benzaldehyde, 3-bromo-4-hydroxy-","InChI=1S/C7H5BrO2/c8-6-3-5(4-9)1-2-7(6)10/h1-4,10H","UOTMHAOCAJROQF-UHFFFAOYSA-N","Oc1ccc(C=O)cc1Br","-2.1794","0.0","1","G1","201.01899999999998","1.9672","41.19430000000001","10.0","2.0","1.0","3.0","1.0","52.0","1.0","0.0","0.0","1.0","37.3","66.61964869177471","3.158901732156222","257.78306142431705"
"B-1948","biphenyl, 3,4'-dichloro-","InChI=1S/C12H8Cl2/c13-11-6-4-9(5-7-11)10-2-1-3-12(14)8-10/h1-8H","CJDNEKOMKXLSBN-UHFFFAOYSA-N","Clc1ccc(cc1)c2cccc(Cl)c2","-6.4001","0.0","1","G1","223.102","4.660400000000002","61.898000000000025","14.0","0.0","0.0","2.0","1.0","70.0","2.0","0.0","0.0","2.0","0.0","93.09502977932434","2.4434555043419293","432.3296467381504"
"B-1949","2,3-dichlorophenoxyacetic acid","InChI=1S/C8H6Cl2O3/c9-5-2-1-3-6(8(5)10)13-4-7(11)12/h1-3H,4H2,(H,11,12)","RBJIGQRZLITQJG-UHFFFAOYSA-N","OC(=O)COc1cccc(Cl)c1Cl","-2.8097","0.0","1","G1","221.039","2.4568000000000003","49.59280000000002","13.0","2.0","1.0","5.0","3.0","70.0","1.0","0.0","0.0","1.0","46.53","84.83712088380017","2.7691156964614927","325.16521978178946"
"B-1950","propanoic acid, 2-(acetyloxy)-, ethyl ester","InChI=1S/C7H12O4/c1-4-10-7(9)5(2)11-6(3)8/h5H,4H2,1-3H3","BCHOKJRLDTXCSF-UHFFFAOYSA-N","CCOC(=O)C(C)OC(C)=O","-0.6994","0.0","1","G1","160.16899999999998","0.5010999999999999","37.861000000000004","11.0","4.0","0.0","4.0","3.0","64.0","0.0","0.0","0.0","0.0","52.6","65.47903837331049","3.7262510867304592","152.51956340253028"
"B-1951","thiocyanic acid, 4-aminophenyl ester","InChI=1S/C7H6N2S/c8-5-10-7-3-1-6(9)2-4-7/h1-4H,9H2","NJYFRQQXXXRJHK-UHFFFAOYSA-N","Nc1ccc(SC#N)cc1","-2.6015","0.0","1","G1","150.20600000000002","1.84198","42.32440000000001","10.0","3.0","1.0","3.0","1.0","50.0","1.0","0.0","0.0","1.0","49.81","63.651925637740234","2.8143225241794605","247.30377126902428"
"B-1952","1h-purin-2-amine, 6-(trifluoromethyl)-","InChI=1S/C6H4F3N5/c7-6(8,9)3-2-4(12-1-11-2)14-5(10)13-3/h1H,(H3,10,11,12,13,14)","BPGSASFKCZQNNZ-UHFFFAOYSA-N","Nc1nc2nc[nH]c2c(n1)C(F)(F)F","-3.1346","0.0","1","G1","203.12699999999995","0.9539","41.09809999999999","14.0","4.0","2.0","8.0","0.0","74.0","2.0","0.0","0.0","2.0","80.48","75.18261103527402","2.796386344144949","473.76197891900415"
"B-1953","ipatone","InChI=1S/C11H21N5O/c1-6-16(7-2)10-13-9(12-8(3)4)14-11(15-10)17-5/h8H,6-7H2,1-5H3,(H,12,13,14,15)","STMMVKNOSKBEEI-UHFFFAOYSA-N","CCN(CC)c1nc(NC(C)C)nc(OC)n1","-4.888999999999999","0.0","1","G1","239.323","1.5466999999999997","68.69870000000004","17.0","6.0","1.0","6.0","6.0","96.0","1.0","0.0","0.0","1.0","63.17","102.43312506082763","3.0341474353239093","351.7150689235082"
"B-1954","norazine","InChI=1S/C7H12ClN5/c1-4(2)10-7-12-5(8)11-6(9-3)13-7/h4H,1-3H3,(H2,9,10,11,12,13)","KLJYRZOFJHYOCO-UHFFFAOYSA-N","CNc1nc(Cl)nc(NC(C)C)n1","-2.8896","0.0","1","G1","201.66100000000003","1.3869999999999998","53.142400000000016","13.0","5.0","2.0","6.0","3.0","72.0","1.0","0.0","0.0","1.0","62.730000000000004","81.95310611402068","2.878054283327965","288.21143267123256"
"B-1955","4-formyl-2-nitrophenol","InChI=1S/C7H5NO4/c9-4-5-1-2-7(10)6(3-5)8(11)12/h1-4,10H","YTHJCZRFJGXPTL-UHFFFAOYSA-N","Oc1ccc(C=O)cc1[N+]([O-])=O","-2.9512","0.0","1","G1","167.11999999999998","1.1129","40.14870000000001","12.0","4.0","1.0","5.0","2.0","62.0","1.0","0.0","0.0","1.0","80.44","67.40507680863314","3.2541929918421286","334.1783027025974"
"B-1956","2-bromo-1-chloropropane","InChI=1S/C3H6BrCl/c1-3(4)2-5/h3H,2H2,1H3","PUJJZGFFAQHYEX-UHFFFAOYSA-N","CC(Br)CCl","-1.8476","0.0","1","G1","157.438","2.0086","29.108999999999995","5.0","0.0","0.0","2.0","1.0","32.0","0.0","0.0","0.0","0.0","0.0","45.6399490891458","2.5395388613593903","20.854752972273346"
"B-1957","g-32292 (aratone)","InChI=1S/C8H15N5O/c1-5(2)10-7-11-6(9-3)12-8(13-7)14-4/h5H,1-4H3,(H2,9,10,11,12,13)","UDLNDEWOMCYEIA-UHFFFAOYSA-N","CNc1nc(NC(C)C)nc(OC)n1","-1.7509","0.0","1","G1","197.24199999999996","0.7421999999999997","54.684400000000025","14.0","6.0","2.0","6.0","4.0","78.0","1.0","0.0","0.0","1.0","71.96000000000001","83.12832723104248","2.9200182242358266","279.53315486014867"
"B-1958","brompyrazone","InChI=1S/C10H8BrN3O/c11-9-8(12)6-13-14(10(9)15)7-4-2-1-3-5-7/h1-6H,12H2","ODNZLRLWXRXPOH-UHFFFAOYSA-N","NC1=C(Br)C(=O)N(N=C1)c2ccccc2","-3.1239999999999997","0.0","1","G1","266.098","1.5772","61.946400000000004","15.0","4.0","1.0","5.0","1.0","76.0","2.0","0.0","0.0","2.0","60.910000000000004","94.47517874515192","2.6602820094110218","536.1089189358535"
"B-1960","l-leucine, n-methyl-","InChI=1S/C7H15NO2/c1-5(2)4-6(8-3)7(9)10/h5-6,8H,4H2,1-3H3,(H,9,10)/t6-/m0/s1","XJODGRWDFZVTKW-LURJTMIESA-N","CN[C@@H](CC(C)C)C(O)=O","-0.5146","0.0","1","G1","145.202","0.7050999999999998","39.938500000000005","10.0","2.0","2.0","3.0","4.0","60.0","0.0","0.0","0.0","0.0","49.33","61.434521750057","3.7173197260221222","112.1737343120833"
"B-1961","dl-valine, n-acetyl-","InChI=1S/C7H13NO3/c1-4(2)6(7(10)11)8-5(3)9/h4,6H,1-3H3,(H,8,9)(H,10,11)","IHYJTAOFMMMOPX-UHFFFAOYSA-N","CC(C)C(NC(C)=O)C(O)=O","-0.6325","0.13595","2","G3","159.18499999999997","0.2316999999999998","40.0785","11.0","2.0","2.0","4.0","3.0","64.0","0.0","0.0","0.0","0.0","66.4","65.59604385010077","4.11529460833615","165.0686213592998"
"B-1962","1,6-heptadiene","InChI=1S/C7H12/c1-3-5-7-6-4-2/h3-4H,1-2,5-7H2","GEAWFZNTIFJMHR-UHFFFAOYSA-N","C=CCCCC=C","-3.3396","0.0","1","G1","96.17299999999999","2.5287000000000006","34.24499999999999","7.0","0.0","0.0","0.0","4.0","40.0","0.0","0.0","0.0","0.0","0.0","45.54969764984068","2.679549206552144","45.05865002596162"
"B-1963","1,1,3-trimethylcyclohexane","InChI=1S/C9H18/c1-8-5-4-6-9(2,3)7-8/h8H,4-7H2,1-3H3","PYOLJOJPIPCRDP-UHFFFAOYSA-N","CC1CCCC(C)(C)C1","-4.8532","0.0","1","G1","126.243","3.2227000000000023","41.413000000000004","9.0","0.0","0.0","0.0","0.0","54.0","0.0","1.0","1.0","1.0","0.0","58.65295678947317","2.4108370132644117","92.2114326716684"
"B-1964","glycine, n-(2-cyanoethyl)-","InChI=1S/C5H8N2O2/c6-2-1-3-7-4-5(8)9/h7H,1,3-4H2,(H,8,9)","KZUBZCHAWPDYQX-UHFFFAOYSA-N","OC(=O)CNCCC#N","0.3237","0.0","1","G1","128.131","-0.4257199999999999","30.73549999999999","9.0","3.0","2.0","4.0","4.0","50.0","0.0","0.0","0.0","0.0","73.12","53.09721720273252","2.937573526428243","127.40990953421706"
"B-1965","dl-alloisoleucine","InChI=1S/C6H13NO2/c1-3-4(2)5(7)6(8)9/h4-5H,3,7H2,1-2H3,(H,8,9)/t4-,5+/m1/s1","AGPKZVBTJJNPAG-UHNVWZDZSA-N","CC[C@@H](C)[C@H](N)C(O)=O","-0.3895","0.0","1","G1","131.17499999999998","0.44439999999999996","35.06619999999998","9.0","2.0","2.0","3.0","3.0","54.0","0.0","0.0","0.0","0.0","63.32","54.859608149065075","3.7161367711827205","103.23098268032228"
"B-1966","1-butanone, 1-(4-fluorophenyl)-4-(4-hydroxy-4-ph","InChI=1S/C21H24FNO2/c22-19-10-8-17(9-11-19)20(24)7-4-14-23-15-12-21(25,13-16-23)18-5-2-1-3-6-18/h1-3,5-6,8-11,25H,4,7,12-16H2","FEFFZKPQSVTBAY-UHFFFAOYSA-N","OC1(CCN(CCCC(=O)c2ccc(F)cc2)CC1)c3ccccc3","-4.1183","0.6241499999999998","2","G2","341.42600000000004","3.7722000000000033","95.97730000000004","25.0","3.0","1.0","4.0","6.0","132.0","2.0","1.0","1.0","3.0","40.54","147.64827012697063","1.4355798819160093","691.5958056500971"
"B-1967","4,4-dimethyl-1-pentanol","InChI=1S/C7H16O/c1-7(2,3)5-4-6-8/h8H,4-6H2,1-3H3","OWCNPTHAWPMOJU-UHFFFAOYSA-N","CC(C)(C)CCCO","-1.5402","0.00539999999999996","2","G3","116.204","1.8050000000000002","35.77479999999999","8.0","1.0","1.0","1.0","2.0","50.0","0.0","0.0","0.0","0.0","20.23","51.723137466405205","3.111766194388426","51.897390567231454"
"B-1968","l-asparagine, n2-(aminocarbonyl)-","InChI=1S/C5H9N3O4/c6-3(9)1-2(4(10)11)8-5(7)12/h2H,1H2,(H2,6,9)(H,10,11)(H3,7,8,12)/t2-/m0/s1","PMPZMFJQCCSPGS-REOHCLBHSA-N","NC(=O)C[C@H](NC(N)=O)C(O)=O","-0.511","0.0","1","G1","175.144","-2.0167","37.954299999999996","12.0","3.0","4.0","7.0","4.0","68.0","0.0","0.0","0.0","0.0","135.51000000000002","67.70746311537677","4.1359823272131315","198.73887201067618"