"ID","Name","InChI","InChIKey","SMILES","Solubility","SD","Ocurrences","Group","MolWt","MolLogP","MolMR","HeavyAtomCount","NumHAcceptors","NumHDonors","NumHeteroatoms","NumRotatableBonds","NumValenceElectrons","NumAromaticRings","NumSaturatedRings","NumAliphaticRings","RingCount","TPSA","LabuteASA","BalabanJ","BertzCT"
"B-993","caulophylline","InChI=1S/C12H16N2O/c1-13-6-9-5-10(8-13)11-3-2-4-12(15)14(11)7-9/h2-4,9-10H,5-8H2,1H3/t9-,10-/m0/s1","CULUKMPMGVXCEI-UWVGGRQHSA-N","CN1C[C@@H]2C[C@@H](C1)C3=CC=CC(=O)N3C2","0.6484","0.0","1","G1","204.273","0.8972","59.04700000000003","15.0","3.0","0.0","3.0","0.0","80.0","1.0","1.0","2.0","3.0","25.240000000000002","89.32531085100374","2.0969111742330933","437.4934141923096"
"B-994","lumazine","InChI=1S/C6H4N4O2/c11-5-3-4(8-2-1-7-3)9-6(12)10-5/h1-2H,(H2,8,9,10,11,12)","UYEUUXMDVNYCAM-UHFFFAOYSA-N","O=C1NC(=O)c2nccnc2N1","-2.1183","0.0","1","G1","164.124","-0.9936000000000003","40.779399999999995","12.0","4.0","2.0","6.0","0.0","60.0","2.0","0.0","0.0","2.0","91.5","65.31470377510574","3.0939322696636298","526.5493904512041"
"B-995","1h-pyrrole-3-propanoic acid, 2,5-dihydro-4-methy","InChI=1S/C8H9NO4/c1-4-5(2-3-6(10)11)8(13)9-7(4)12/h2-3H2,1H3,(H,10,11)(H,9,12,13)","ZAFOEDODWZIXMO-UHFFFAOYSA-N","CC1=C(CCC(O)=O)C(=O)NC1=O","-0.6608","0.0","1","G1","183.16299999999998","-0.17589999999999995","42.71950000000001","13.0","3.0","2.0","5.0","3.0","70.0","0.0","0.0","1.0","1.0","83.47","74.42707387882767","2.7216330943056946","316.1057163358342"
"B-996","d-quercitol","InChI=1S/C6H12O5/c7-2-1-3(8)5(10)6(11)4(2)9/h2-11H,1H2/t2-,3-,4+,5+/m1/s1","IMPKVMRTXBRHRB-MBMOQRBOSA-N","O[C@@H]1C[C@@H](O)[C@H](O)C(O)[C@H]1O","-0.1739","0.0","1","G1","164.15699999999998","-2.8054","34.650999999999996","11.0","5.0","5.0","5.0","0.0","66.0","0.0","1.0","1.0","1.0","101.15","63.5292992072634","2.625358332036857","124.93433232624652"
"B-997","azulene, 1,4-dimethyl-7-(1-methylethyl)-","InChI=1S/C15H18/c1-10(2)13-7-5-11(3)14-8-6-12(4)15(14)9-13/h5-10H,1-4H3","FWKQNCXZGNBPFD-UHFFFAOYSA-N","CC(C)c1ccc(C)c2ccc(C)c2c1","-5.4752","0.0","1","G1","198.30899999999997","4.531640000000004","66.62700000000004","15.0","0.0","0.0","0.0","1.0","78.0","0.0","0.0","2.0","2.0","0.0","92.2922327776796","2.712014364325654","452.09173176137165"
"B-998","monotropitoside","InChI=1S/C19H26O12/c1-27-17(26)8-4-2-3-5-10(8)30-19-16(25)14(23)13(22)11(31-19)7-29-18-15(24)12(21)9(20)6-28-18/h2-5,9,11-16,18-25H,6-7H2,1H3","VHUNCYDAXJGCLO-UHFFFAOYSA-N","COC(=O)c1ccccc1OC2OC(COC3OCC(O)C(O)C3O)C(O)C(O)C2O","-0.7418","0.0","1","G1","446.40500000000003","-2.884799999999998","98.80330000000004","31.0","12.0","6.0","12.0","6.0","174.0","1.0","2.0","2.0","3.0","184.6","176.6586390603486","1.6778960743635525","744.3533378081979"
"B-999","1(2h)-isoquinolinone","InChI=1S/C9H7NO/c11-9-8-4-2-1-3-7(8)5-6-10-9/h1-6H,(H,10,11)","VDBNYAPERZTOOF-UHFFFAOYSA-N","O=C1NC=Cc2ccccc12","-2.4842","0.0","1","G1","145.16099999999997","1.5281","44.56870000000002","11.0","1.0","1.0","2.0","0.0","54.0","2.0","0.0","0.0","2.0","32.86","63.49423773222244","3.0307899009392414","425.2608208761056"
"B-1000","chrysarobin","InChI=1S/C15H12O3/c1-8-5-10-7-9-3-2-4-11(16)13(9)15(18)14(10)12(17)6-8/h2-7,16-18H,1H3","JBGKVNQFVAJOGC-UHFFFAOYSA-N","Cc1cc(O)c2c(O)c3c(O)cccc3cc2c1","-3.0585","0.0","1","G1","240.258","3.4182200000000016","71.18540000000002","18.0","3.0","3.0","3.0","0.0","90.0","3.0","0.0","0.0","3.0","60.69","103.54237555395203","2.613927720326788","775.6298966071573"
"B-1001","leucopterin","InChI=1S/C6H5N5O3/c7-6-10-2-1(3(12)11-6)8-4(13)5(14)9-2/h(H,8,13)(H4,7,9,10,11,12,14)","SFLOGVVDXPCWGR-UHFFFAOYSA-N","NC1=NC(=O)C2=C(N1)NC(=O)C(=O)N2","-5.1655","0.0","1","G1","195.13799999999998","-2.1181000000000005","48.01749999999998","14.0","5.0","4.0","8.0","0.0","72.0","2.0","0.0","0.0","2.0","137.48999999999998","74.81611657216223","3.1145073823856793","663.4469161804845"
"B-1002","atropic acid","InChI=1S/C9H8O2/c1-7(9(10)11)8-5-3-2-4-6-8/h2-6H,1H2,(H,10,11)","ONPJWQSDZCGSQM-UHFFFAOYSA-N","OC(=O)C(=C)c1ccccc1","-2.0568","0.0","1","G1","148.161","1.7844","43.11180000000002","11.0","1.0","1.0","2.0","2.0","56.0","1.0","0.0","0.0","1.0","37.3","64.79238228274231","2.9479803431399967","274.87402422213546"
"B-1003","2-amino-1-phenyl-propan-1-ol","InChI=1S/C9H13NO/c1-7(10)9(11)8-5-3-2-4-6-8/h2-7,9,11H,10H2,1H3/t7-,9+/m0/s1","DLNKOYKMWOXYQA-IONNQARKSA-N","C[C@H](N)[C@@H](O)c1ccccc1","-0.8786","0.0","1","G1","151.20899999999997","1.0672000000000001","45.05120000000002","11.0","2.0","2.0","2.0","2.0","60.0","1.0","0.0","0.0","1.0","46.25","66.66035391189551","2.7679177813074443","208.06253483771286"
"B-1004","alpha-d-glucose","InChI=1S/C6H12O6/c7-1-2-3(8)4(9)5(10)6(11)12-2/h2-11H,1H2/t2-,3-,4+,5-,6+/m1/s1","WQZGKKKJIJFFOK-DVKNGEFBSA-N","OC[C@H]1O[C@H](O)[C@H](O)[C@@H](O)[C@@H]1O","0.4433","0.0","1","G1","180.156","-3.2214000000000005","35.986","12.0","6.0","5.0","6.0","1.0","72.0","0.0","1.0","1.0","1.0","110.38000000000001","68.64284443677029","2.6344089870615974","146.2188491003481"
"B-1005","1,3-cyclohexanedione, 5-phenyl-","InChI=1S/C12H12O2/c13-11-6-10(7-12(14)8-11)9-4-2-1-3-5-9/h1-5,8,10,13H,6-7H2/t10-/m1/s1","ZFVDSCASCRHXCP-SNVBAGLBSA-N","OC1=CC(=O)C[C@@H](C1)c2ccccc2","-2.5113","0.0","1","G1","188.22600000000003","2.575000000000001","54.13580000000003","14.0","2.0","1.0","2.0","1.0","72.0","1.0","0.0","1.0","2.0","37.3","82.88137747240292","2.221777160345017","365.1679360709387"
"B-1006","anabasine","InChI=1S/C10H14N2/c1-2-7-12-10(5-1)9-4-3-6-11-8-9/h3-4,6,8,10,12H,1-2,5,7H2/t10-/m0/s1","MTXSIJUGVMTTMU-JTQLQIEISA-N","C1CC[C@H](NC1)c2cccnc2","0.7898","0.0","1","G1","162.236","1.8961999999999999","48.83170000000003","12.0","2.0","1.0","2.0","1.0","64.0","1.0","1.0","1.0","2.0","24.92","73.01979270250531","2.082510086938828","226.8537121839843"
"B-1007","gentisyl alcohol","InChI=1S/C7H8O3/c8-4-5-3-6(9)1-2-7(5)10/h1-3,8-10H,4H2","PUZSUVGRVHEUQO-UHFFFAOYSA-N","OCc1cc(O)ccc1O","0.8534","0.0","1","G1","140.13799999999998","0.5900999999999998","35.69440000000001","10.0","3.0","3.0","3.0","1.0","54.0","1.0","0.0","0.0","1.0","60.69","58.1790464904816","3.090683646458197","232.29287048965844"
"B-1008","bayer 15080","InChI=1S/C13H11N3O2/c17-13(10-4-2-1-3-5-10)15-14-11-6-8-12(16-18)9-7-11/h1-9,14H,(H,15,17)","ORLIFVYIUIQGOA-UHFFFAOYSA-N","O=Nc1ccc(NNC(=O)c2ccccc2)cc1","-4.6835","0.0","1","G1","241.25000000000003","2.841400000000001","69.42790000000002","18.0","4.0","2.0","5.0","4.0","90.0","2.0","0.0","0.0","2.0","70.56","103.77955391168294","1.9482522697622489","537.9226316891575"
"B-1009","salinazid","InChI=1S/C13H11N3O2/c17-12-4-2-1-3-11(12)9-15-16-13(18)10-5-7-14-8-6-10/h1-9,15H,(H,16,18)/b11-9-","CYKAGXAJJFUETC-LUAWRHEFSA-N","O=C(NN\C=C/1C=CC=CC1=O)c2ccncc2","-3.6835","0.0","1","G1","241.25","0.8950000000000001","66.20890000000001","18.0","4.0","2.0","5.0","3.0","90.0","1.0","0.0","1.0","2.0","71.09","103.88885235307293","1.9135277150001913","544.6146011340021"
"B-1010","1h-indole, 2,3-dihydro-","InChI=1S/C8H9N/c1-2-4-8-7(3-1)5-6-9-8/h1-4,9H,5-6H2","LPAGFVYQRIESJQ-UHFFFAOYSA-N","C1Cc2ccccc2N1","-1.0427","0.0","1","G1","119.16699999999997","1.6545999999999998","38.63570000000001","9.0","1.0","1.0","1.0","0.0","46.0","1.0","0.0","1.0","2.0","12.03","54.70531837836899","2.53519473965517","194.56254955650076"
"B-1011","2-butenal, 2-methyl-, (e)-","InChI=1S/C5H8O/c1-3-5(2)4-6/h3-4H,1-2H3/b5-3+","ACWQBUSCFPJUPN-HWKANZROSA-N","C\C=C(/C)C=O","-0.527","0.0","1","G1","84.11799999999998","1.1515","25.49499999999999","6.0","1.0","0.0","1.0","1.0","34.0","0.0","0.0","0.0","0.0","17.07","37.67093855327549","3.5040318284625833","72.00763013991067"
"B-1012","1,3-dioxolane, 2-methyl-","InChI=1S/C4H8O2/c1-4-5-2-3-6-4/h4H,2-3H2,1H3","HTWIZMNMTWYQRN-UHFFFAOYSA-N","CC1OCCO1","0.8789","0.0","1","G1","88.106","0.3792","21.365999999999993","6.0","2.0","0.0","2.0","0.0","36.0","0.0","1.0","1.0","1.0","18.46","37.055336676503906","2.184105569636068","38.8127439131334"
"B-1013","norcamphor","InChI=1S/C7H10O/c8-7-4-5-1-2-6(7)3-5/h5-6H,1-4H2","KPMKEVXVVHNIEY-UHFFFAOYSA-N","O=C1CC2CCC1C2","-1.7565","0.0","1","G1","110.156","1.3755","30.454999999999984","8.0","1.0","0.0","1.0","0.0","44.0","0.0","2.0","2.0","2.0","17.07","49.078763507194495","2.216563489909098","128.34851554559677"
"B-1014","3-hydroxy-4-oxo-4h-pyran-2,6-dicarboxylic acid","InChI=1S/C7H4O7/c8-2-1-3(6(10)11)14-5(4(2)9)7(12)13/h1,12-13H,(H,10,11)","SELRUPTWVICDPZ-UHFFFAOYSA-N","OC(O)=C1OC(=CC(=O)C1=O)C(O)=O","-1.3769999999999998","0.0","1","G1","200.10199999999998","-0.5915999999999999","39.1014","14.0","6.0","3.0","7.0","1.0","74.0","0.0","0.0","1.0","1.0","121.13","76.52467928253768","3.186501178171849","382.8424910217124"
"B-1015","ethanone, 1-(4-hydroxy-3-methoxyphenyl)-","InChI=1S/C9H10O3/c1-6(10)7-3-4-8(11)9(5-7)12-2/h3-5,11H,1-2H3","DFYRUELUNQRZTB-UHFFFAOYSA-N","COc1cc(ccc1O)C(C)=O","-1.5216","0.0","1","G1","166.17599999999996","1.6034","44.66330000000002","12.0","3.0","1.0","3.0","2.0","64.0","1.0","0.0","0.0","1.0","46.53","70.59553054443344","3.1343002499495434","304.64199945095794"
"B-1016","norvaline","InChI=1S/C5H11NO2/c1-2-3-4(6)5(7)8/h4H,2-3,6H2,1H3,(H,7,8)/t4-/m1/s1","SNDPXSYFESPGGJ-SCSAIBSYSA-N","CCC[C@@H](N)C(O)=O","-0.0687","0.0","1","G1","117.14799999999998","0.19839999999999997","30.51919999999999","8.0","2.0","2.0","3.0","3.0","48.0","0.0","0.0","0.0","0.0","63.32","48.49466603466847","3.3180871972839956","82.49785513558373"
"B-1017","citraconic acid","InChI=1S/C5H6O4/c1-3(5(8)9)2-4(6)7/h2H,1H3,(H,6,7)(H,8,9)/b3-2-","HNEGQIOMVPPMNR-IHWYPQMZSA-N","C\C(=C\C(O)=O)C(O)=O","0.7795","0.24025000000000002","2","G3","130.099","0.10189999999999999","29.02859999999999","9.0","2.0","2.0","4.0","2.0","50.0","0.0","0.0","0.0","0.0","74.6","51.42092815771127","4.169214533734282","167.79680833403847"
"B-1018","phenol, 2-methyl-5-(1-methylethyl)-","InChI=1S/C10H14O/c1-7(2)9-5-4-8(3)10(11)6-9/h4-7,11H,1-3H3","RECUKUPTGUEGMW-UHFFFAOYSA-N","CC(C)c1ccc(C)c(O)c1","-2.0798","0.0","1","G1","150.22099999999998","2.824020000000001","46.93280000000003","11.0","1.0","1.0","1.0","1.0","60.0","1.0","0.0","0.0","1.0","20.23","67.6854053292794","3.051645448959173","251.0497317859833"
"B-1019","beta-eucaine","InChI=1S/C15H21NO2/c1-11-9-13(10-15(2,3)16-11)18-14(17)12-7-5-4-6-8-12/h4-8,11,13,16H,9-10H2,1-3H3","ZYHGIAPHLSTGMX-UHFFFAOYSA-N","CC1CC(CC(C)(C)N1)OC(=O)c2ccccc2","-1.922","0.0","1","G1","247.33800000000002","2.762500000000001","71.55620000000005","18.0","3.0","1.0","3.0","2.0","98.0","1.0","1.0","1.0","2.0","38.33","108.53498050869592","1.9927138380762042","413.76159501340936"
"B-1020","acetic acid, oxo(phenylamino)-","InChI=1S/C8H7NO3/c10-7(8(11)12)9-6-4-2-1-3-5-6/h1-5H,(H,9,10)(H,11,12)","PQJZHMCWDKOPQG-UHFFFAOYSA-N","OC(=O)C(=O)Nc1ccccc1","-1.3019","0.0","1","G1","165.148","0.7096999999999998","42.70750000000002","12.0","2.0","2.0","4.0","1.0","62.0","1.0","0.0","0.0","1.0","66.39999999999999","68.82842748418176","2.6503977732748716","294.4310994682657"
"B-1021","n-benzyl-3-chloropropanamide","InChI=1S/C10H12ClNO/c11-7-6-10(13)12-8-9-4-2-1-3-5-9/h1-5H,6-8H2,(H,12,13)","JPYQFYIEOUVJDU-UHFFFAOYSA-N","ClCCC(=O)NCc1ccccc1","-3.2959","0.0","1","G1","197.66500000000002","1.9317","53.62570000000003","13.0","1.0","1.0","3.0","4.0","70.0","1.0","0.0","0.0","1.0","29.1","82.9058220876169","2.310042822879905","260.88707266800486"
"B-1022","2-butenoic acid, 4-[(aminocarbonyl)amino]-4-oxo-","InChI=1S/C5H6N2O4/c6-5(11)7-3(8)1-2-4(9)10/h1-2H,(H,9,10)(H3,6,7,8,11)","GWGLGTKSTGSWGQ-UHFFFAOYSA-N","NC(=O)NC(=O)C=CC(O)=O","-1.9202","0.0","1","G1","158.11299999999997","-1.1779000000000002","34.5019","11.0","3.0","3.0","6.0","2.0","60.0","0.0","0.0","0.0","0.0","109.49000000000001","61.67796938617978","3.8779586826574968","220.52230736518902"
"B-1023","bis(ethylxanthogen)","InChI=1S/C6H10O2S4/c1-3-7-5(9)11-12-6(10)8-4-2/h3-4H2,1-2H3","FVIGODVHAVLZOO-UHFFFAOYSA-N","CCOC(=S)SSC(=S)OCC","-4.9432","0.0","1","G1","242.412","3.010600000000001","63.630000000000024","12.0","6.0","0.0","6.0","2.0","70.0","0.0","0.0","0.0","0.0","18.46","91.15479469031625","3.402570682630092","141.6270750562502"
"B-1025","trimethyleneoxide","InChI=1S/C3H6O/c1-2-4-3-1/h1-3H2","AHHWIHXENZJRFG-UHFFFAOYSA-N","C1COC1","1.236","0.0","1","G1","58.07999999999999","0.40670000000000006","15.436000000000003","4.0","1.0","0.0","1.0","0.0","24.0","0.0","1.0","1.0","1.0","9.23","25.576849332600418","2.0","11.245112497836532"
"B-1027","(z)-2-butenoic acid (isocrotonic acid)","InChI=1S/C4H6O2/c1-2-3-4(5)6/h2-3H,1H3,(H,5,6)/b3-2-","LDHQCZJRKDOVOX-IHWYPQMZSA-N","C\C=C/C(O)=O","1.065","0.0","1","G1","86.08999999999999","0.6471","22.449799999999993","6.0","1.0","1.0","2.0","1.0","34.0","0.0","0.0","0.0","0.0","37.3","36.10023019107489","3.301627871993482","73.61727061434749"
"B-1029","4-aminopyridine","InChI=1S/C5H6N2/c6-5-1-3-7-4-2-5/h1-4H,(H2,6,7)","NUKYPUAOHBNCPY-UHFFFAOYSA-N","Nc1ccncc1","-0.0529","0.0","1","G1","94.11699999999999","0.6638000000000001","28.6494","7.0","2.0","1.0","2.0","0.0","36.0","1.0","0.0","0.0","1.0","38.91","41.99094179745619","3.0214653097240864","136.00750422530467"
"B-1030","2-aminopyridine","InChI=1S/C5H6N2/c6-5-3-1-2-4-7-5/h1-4H,(H2,6,7)","ICSNLGPSRYBMBD-UHFFFAOYSA-N","Nc1ccccn1","0.9757","0.02531596224999999","2","G3","94.117","0.6638000000000001","28.6494","7.0","2.0","1.0","2.0","0.0","36.0","1.0","0.0","0.0","1.0","38.91","41.990941797456195","3.0214653097240864","136.00750422530467"
"B-1031","1,4-dithiane","InChI=1S/C4H8S2/c1-2-6-4-3-5-1/h1-4H2","LOZWAPSEEHRYPG-UHFFFAOYSA-N","C1CSCCS1","-1.6029","0.0","1","G1","120.24199999999999","1.4664","34.65","6.0","2.0","0.0","2.0","0.0","36.0","0.0","1.0","1.0","1.0","0.0","47.074466268220625","2.0","21.019550008653873"
"B-1032","suberic acid","InChI=1S/C8H14O4/c9-7(10)5-3-1-2-4-6-8(11)12/h1-6H2,(H,9,10)(H,11,12)","TYFQFVWCELRYAO-UHFFFAOYSA-N","OC(=O)CCCCCCC(O)=O","-1.1673","0.43635","2","G3","174.196","1.4962000000000002","42.97360000000001","12.0","2.0","2.0","4.0","7.0","70.0","0.0","0.0","0.0","0.0","74.6","71.20535753308538","3.0073056362946593","135.1368500605771"
"B-1034","di-2-chloroethyl sulfide","InChI=1S/C4H8Cl2S/c5-1-3-7-4-2-6/h1-4H2","QKSKPIVNLNLAAV-UHFFFAOYSA-N","ClCCSCCCl","-2.3666","0.0","1","G1","159.08100000000002","2.1972000000000005","38.76500000000001","7.0","1.0","0.0","3.0","4.0","44.0","0.0","0.0","0.0","0.0","0.0","58.56371985014796","2.447472887876344","28.870765403276856"
"B-1035","2,4-hexadienedioic acid,","InChI=1S/C6H6O4/c7-5(8)3-1-2-4-6(9)10/h1-4H,(H,7,8)(H,9,10)/b3-1-,4-2-","TXXHDPDFNKHHGW-CCAGOZQPSA-N","OC(=O)\C=C/C=C\C(O)=O","-2.8516","0.0","1","G1","142.10999999999999","0.2680000000000002","33.551599999999986","10.0","2.0","2.0","4.0","3.0","54.0","0.0","0.0","0.0","0.0","74.6","57.09626723992363","3.730805714767907","167.9244971645878"
"B-1036","iodine cyanide","InChI=1S/CIN/c2-1-3","WPBXOELOQKLBDF-UHFFFAOYSA-N","IC#N","-0.6333","0.0","1","G1","152.922","0.9024800000000001","19.633000000000003","3.0","1.0","0.0","2.0","0.0","16.0","0.0","0.0","0.0","0.0","23.79","32.3936688303419","2.475534205527556","26.264662506490403"
"B-1037","2-bromo-2-methylpropane","InChI=1S/C4H9Br/c1-4(2,3)5/h1-3H3","RKSOPLXZQNSWAS-UHFFFAOYSA-N","CC(C)(C)Br","-2.3586","0.0","1","G1","137.01999999999998","2.1798","28.67999999999999","5.0","0.0","0.0","1.0","0.0","32.0","0.0","0.0","0.0","0.0","0.0","41.70162497666073","3.0237157840738176","19.11941547876375"
"B-1038","borneol","InChI=1S/C10H18O/c1-9(2)7-4-5-10(9,3)8(11)6-7/h7-8,11H,4-6H2,1-3H3","DTGKSKDOIYIVQL-UHFFFAOYSA-N","CC1(C)C2CCC1(C)C(O)C2","-2.3202","0.2149000000000001","2","G3","154.253","2.1935000000000002","45.23580000000002","11.0","1.0","1.0","1.0","0.0","64.0","0.0","2.0","2.0","2.0","20.23","68.80630150253657","2.396254979141823","185.3117986128446"
"B-1040","hydrocortisone tebutate","InChI=1S/C27H40O6/c1-24(2,3)14-22(31)33-15-21(30)27(32)11-9-19-18-7-6-16-12-17(28)8-10-25(16,4)23(18)20(29)13-26(19,27)5/h12,18-20,23,29,32H,6-11,13-15H2,1-5H3","FNFPHNZQOKBKHN-UHFFFAOYSA-N","CC(C)(C)CC(=O)OCC(=O)C1(O)CCC2C3CCC4=CC(=O)CCC4(C)C3C(O)CC12C","-5.5111","0.0","1","G1","460.6110000000003","3.7687000000000026","123.08760000000008","33.0","6.0","2.0","6.0","4.0","184.0","0.0","3.0","4.0","4.0","100.90000000000002","196.70139738987038","1.5453793324674707","883.5326935794543"
"B-1041","tetranitromethane","InChI=1S/CN4O8/c6-2(7)1(3(8)9,4(10)11)5(12)13","NYTOUQBROMCLBJ-UHFFFAOYSA-N","[O-][N+](=O)C([N+]([O-])=O)([N+]([O-])=O)[N+]([O-])=O","-2.3381","0.0","1","G1","196.031","-1.2954999999999997","30.708600000000008","13.0","8.0","0.0","12.0","4.0","72.0","0.0","0.0","0.0","0.0","172.56","67.35115391782874","5.601028023813307","231.00937706801835"
"B-1042","pholcodine","InChI=1S/C23H30N2O4/c1-24-7-6-23-16-3-4-18(26)22(23)29-21-19(5-2-15(20(21)23)14-17(16)24)28-13-10-25-8-11-27-12-9-25/h2-5,16-18,22,26H,6-14H2,1H3/t16?,17-,18+,22+,23+/m1/s1","GPFAJKDEDBRFOS-SLITUTQKSA-N","CN1CC[C@]23[C@H]4Oc5c(OCCN6CCOCC6)ccc(C[C@@H]1C2C=C[C@@H]4O)c35","-1.2994","0.0","1","G1","398.50300000000004","1.2034999999999998","108.66580000000008","29.0","6.0","1.0","6.0","4.0","156.0","1.0","2.0","5.0","6.0","54.400000000000006","171.5711970455323","1.328591223763308","836.4118943712936"
"B-1043","2,4,6(1h,3h,5h)-pyrimidinetrione, 5-ethyl-5-(1-p","InChI=1S/C11H17N3O3/c1-2-11(14-6-4-3-5-7-14)8(15)12-10(17)13-9(11)16/h2-7H2,1H3,(H2,12,13,15,16,17)","ZFVLHMJCLWOOOY-UHFFFAOYSA-N","CCC1(N2CCCCC2)C(=O)NC(=O)NC1=O","-2.1562","0.0","1","G1","239.275","-0.012900000000000245","60.12740000000003","17.0","4.0","2.0","6.0","2.0","94.0","0.0","2.0","2.0","2.0","78.51","99.72113420228796","2.300555877244798","340.97315667806623"
"B-1045","diosgenin","InChI=1S/C27H42O3/c1-16-7-12-27(29-15-16)17(2)24-23(30-27)14-22-20-6-5-18-13-19(28)8-10-25(18,3)21(20)9-11-26(22,24)4/h5,16-17,19-24,28H,6-15H2,1-4H3/t16-,17+,19+,20-,21+,22+,23+,24+,25+,26+,27-/m1/s1","WQLVFSAGQJTQCK-VKROHFNGSA-N","C[C@@H]1CC[C@@]2(OC1)O[C@H]3C[C@H]4[C@@H]5CC=C6C[C@@H](O)CC[C@]6(C)[C@H]5CC[C@]4(C)[C@H]3[C@@H]2C","-7.3166","0.0","1","G1","414.6300000000003","5.713900000000006","117.70080000000006","30.0","3.0","1.0","3.0","0.0","168.0","0.0","5.0","6.0","6.0","38.69","182.52448025999152","1.2821987670487944","736.3902102956507"
"B-1046","raffinose","InChI=1S/C18H32O16/c19-1-5-8(22)11(25)13(27)16(31-5)30-3-7-9(23)12(26)14(28)17(32-7)34-18(4-21)15(29)10(24)6(2-20)33-18/h5-17,19-29H,1-4H2/t5-,6-,7-,8+,9-,10-,11+,12+,13-,14-,15+,16+,17-,18+/m1/s1","MUPFEKGTMRGPLJ-ZQSKZDJDSA-N","OC[C@H]1O[C@H](OC[C@H]2O[C@H](O[C@]3(CO)O[C@H](CO)[C@@H](O)[C@@H]3O)[C@H](O)[C@@H](O)[C@@H]2O)[C@H](O)[C@@H](O)[C@H]1O","-0.3962","0.0","1","G1","504.43800000000005","-7.571399999999989","101.27480000000001","34.0","16.0","11.0","16.0","8.0","200.0","0.0","3.0","3.0","3.0","268.67999999999995","192.23007093367468","1.6897643338729131","653.442936810205"
"B-1047","tripropyl phosphate","InChI=1S/C9H21O4P/c1-4-7-11-14(10,12-8-5-2)13-9-6-3/h4-9H2,1-3H3","RXPQRKFMDQNODS-UHFFFAOYSA-N","CCCO[P](=O)(OCCC)OCCC","-1.5412","0.0","1","G1","224.23699999999994","3.3743000000000025","56.33550000000005","14.0","4.0","0.0","5.0","9.0","86.0","0.0","0.0","0.0","0.0","44.760000000000005","86.54903430599812","3.9659458850842926","143.6655643937011"
"B-1049","1-chloro-2-methylpropene","InChI=1S/C4H7Cl/c1-4(2)3-5/h3H,1-2H3","KWISWUFGPUHDRY-UHFFFAOYSA-N","CC(C)=CCl","-1.9569","0.0","1","G1","90.553","2.1489000000000003","25.28399999999999","5.0","0.0","0.0","1.0","0.0","30.0","0.0","0.0","0.0","0.0","0.0","37.44774056571679","3.1431973062780685","41.60964047443681"
"B-1050","methallyl alcohol","InChI=1S/C4H8O/c1-4(2)3-5/h5H,1,3H2,2H3","BYDRTKVGBRTTIT-UHFFFAOYSA-N","CC(=C)CO","0.4298","0.0","1","G1","72.107","0.5548","21.899799999999995","5.0","1.0","1.0","1.0","1.0","30.0","0.0","0.0","0.0","0.0","20.23","31.938708091031135","2.8473789230876716","38.912609383243264"