"ID","Name","InChI","InChIKey","SMILES","Solubility","SD","Ocurrences","Group","MolWt","MolLogP","MolMR","HeavyAtomCount","NumHAcceptors","NumHDonors","NumHeteroatoms","NumRotatableBonds","NumValenceElectrons","NumAromaticRings","NumSaturatedRings","NumAliphaticRings","RingCount","TPSA","LabuteASA","BalabanJ","BertzCT"
"B-2188","2-propanone, 1,1-diethoxy-","InChI=1S/C7H14O3/c1-4-9-7(6(3)8)10-5-2/h7H,4-5H2,1-3H3","SDMOBEHDSJVJHU-UHFFFAOYSA-N","CCOC(OCC)C(C)=O","-0.2059","0.0","1","G1","146.18599999999998","0.9744999999999999","37.721000000000004","10.0","3.0","0.0","3.0","5.0","60.0","0.0","0.0","0.0","0.0","35.53","61.31751627326672","3.6095780526829477","95.02434166397533"
"B-2190","1,8,15,22-tetraazacyclooctacosane-2,9,16,23-tetr","InChI=1S/C24H44N4O4/c29-21-13-5-1-9-17-25-22(30)14-6-2-11-19-27-24(32)16-8-4-12-20-28-23(31)15-7-3-10-18-26-21/h1-20H2,(H,25,30)(H,26,29)(H,27,32)(H,28,31)","LAIGWNLGTIDKPL-UHFFFAOYSA-N","O=C1CCCCCNC(=O)CCCCCNC(=O)CCCCCNC(=O)CCCCCN1","-2.8126","0.0","1","G1","452.6400000000004","2.7064000000000012","125.91080000000008","32.0","4.0","4.0","8.0","0.0","184.0","0.0","1.0","1.0","1.0","116.4","192.97262564002955","2.2565323179830536","418.1173000519233"
"B-2191","isopropyl-4,4'-dichlorobenzilate","InChI=1S/C17H16Cl2O3/c1-11(2)22-16(20)17(21,12-3-7-14(18)8-4-12)13-5-9-15(19)10-6-13/h3-11,21H,1-2H3","AXGUBXVWZBFQGA-UHFFFAOYSA-N","CC(C)OC(=O)C(O)(c1ccc(Cl)cc1)c2ccc(Cl)cc2","-5.3544","0.4121999999999999","2","G3","339.2180000000001","4.180900000000003","87.13080000000002","22.0","3.0","1.0","5.0","4.0","116.0","2.0","0.0","0.0","2.0","46.53","138.989041433054","2.547618683970087","603.1091973394051"
"B-2192","endrocide (endox) (coumatetralyl)","InChI=1S/C19H16O3/c20-18-15-9-3-4-11-16(15)22-19(21)17(18)14-10-5-7-12-6-1-2-8-13(12)14/h1-4,6,8-9,11,14,21H,5,7,10H2","KIGBUEKEZHTCDR-UHFFFAOYSA-N","OC1=C(C2CCCc3ccccc23)C(=O)c4ccccc4O1","-4.8638","0.0","1","G1","292.33400000000006","3.966800000000002","85.37180000000004","22.0","3.0","1.0","3.0","1.0","110.0","3.0","0.0","1.0","4.0","50.44","127.38467183760224","1.980229266557628","907.9425133722575"
"B-2193","ethanol, 2-mercapto-, 1-acetate","InChI=1S/C4H8O2S/c1-4(5)6-2-3-7/h7H,2-3H2,1H3","YDLAHBBJAGGIJZ-UHFFFAOYSA-N","CC(=O)OCCS","-1.5","0.0","1","G1","120.17300000000002","0.4793","30.48599999999999","7.0","3.0","1.0","3.0","2.0","42.0","0.0","0.0","0.0","0.0","26.3","48.26421136397174","2.8219389370591843","62.71013448036486"
"B-2194","terbacil","InChI=1S/C9H13ClN2O2/c1-5-6(10)7(13)12(8(14)11-5)9(2,3)4/h1-4H3,(H,11,14)","NBQCNZYJJMBDKY-UHFFFAOYSA-N","CC1=C(Cl)C(=O)N(C(=O)N1)C(C)(C)C","-2.4845","0.0","1","G1","216.668","1.25342","56.065700000000014","14.0","3.0","1.0","5.0","0.0","78.0","1.0","0.0","0.0","1.0","54.86","86.53169156693754","3.711923181476811","465.1710152954115"
"B-2195","thioperoxydiphosphoric acid, tetramethyl ester","InChI=1S/C4H12O4P2S4/c1-5-9(11,6-2)13-14-10(12,7-3)8-4/h1-4H3","HUTQNWSTEVZUML-UHFFFAOYSA-N","CO[P](=S)(OC)SS[P](=S)(OC)OC","-4.3981","0.0","1","G1","314.3520000000001","3.402400000000002","71.78800000000003","14.0","8.0","0.0","10.0","7.0","86.0","0.0","0.0","0.0","0.0","36.92","102.01812536253553","4.291512616498759","217.72583425214327"
"B-2196","d-xylose, (aminocarbonyl)hydrazone","InChI=1S/C6H13N3O5/c7-6(14)9-8-1-3(11)5(13)4(12)2-10/h1,3-5,10-13H,2H2,(H3,7,9,14)/t3-,4+,5+/m0/s1","HJUOUZOJKPIETD-VPENINKCSA-N","NC(=O)NN=C[C@H](O)[C@@H](O)[C@H](O)CO","-0.1288","0.0","1","G1","207.186","-3.2845","46.31730000000002","14.0","6.0","6.0","8.0","5.0","82.0","0.0","0.0","0.0","0.0","148.4","79.65763009535625","3.9938304188992175","209.6436571479203"
"B-2197","propanoic acid, 3-phosphono-","InChI=1S/C3H7O5P/c4-3(5)1-2-9(6,7)8/h1-2H2,(H,4,5)(H2,6,7,8)","NLBSQHGCGGFVJW-UHFFFAOYSA-N","OC(=O)CC[P](O)(O)=O","0.5007","0.0","1","G1","154.05800000000002","-0.3612","29.163899999999988","9.0","2.0","3.0","6.0","3.0","54.0","0.0","0.0","0.0","0.0","94.83000000000001","51.47629902960242","3.5254531798739226","146.28209708830374"
"B-2198",".beta.-d-glucopyranose, 4-o-.beta.-d-galactopyra","InChI=1S/C12H22O11/c13-1-3-5(15)6(16)9(19)12(22-3)23-10-4(2-14)21-11(20)8(18)7(10)17/h3-20H,1-2H2/t3-,4-,5+,6+,7-,8-,9-,10-,11-,12+/m1/s1","GUBGYTABKSRVRQ-DCSYEGIMSA-N","OC[C@H]1O[C@@H](O[C@H]2[C@H](O)[C@@H](O)[C@H](O)O[C@@H]2CO)[C@H](O)[C@@H](O)[C@H]1O","-0.8167","0.0","1","G1","342.297","-5.397199999999993","68.61940000000004","23.0","11.0","8.0","11.0","4.0","136.0","0.0","2.0","2.0","2.0","189.52999999999997","130.43645768522254","2.114861902481824","378.01843836179484"
"B-2200","ethanamine, 2,2'-thiobis[n,n-diethyl-","InChI=1S/C12H28N2S/c1-5-13(6-2)9-11-15-12-10-14(7-3)8-4/h5-12H2,1-4H3","LYFNBXZVKYDWNX-UHFFFAOYSA-N","CCN(CC)CCSCCN(CC)CC","-2.3663","0.0","1","G1","232.43699999999995","2.403200000000001","72.90100000000005","15.0","3.0","0.0","3.0","10.0","92.0","0.0","0.0","0.0","0.0","6.48","100.39639165196422","3.30039818684965","108.79052679372947"
"B-2202","5-oxo-3-phenyl-hexanoic acid","InChI=1S/C12H14O3/c1-9(13)7-11(8-12(14)15)10-5-3-2-4-6-10/h2-6,11H,7-8H2,1H3,(H,14,15)","DUGWBMXFSCILOV-UHFFFAOYSA-N","CC(=O)CC(CC(O)=O)c1ccccc1","-1.4463","0.0","1","G1","206.241","2.224","56.73380000000003","15.0","2.0","1.0","3.0","5.0","80.0","1.0","0.0","0.0","1.0","54.37","88.73833375816017","2.8051070560609115","327.144681354708"
"B-2203","benzenamine, n-ethyl-n,2,4,6-tetranitro-","InChI=1S/C8H7N5O8/c1-2-9(13(20)21)8-6(11(16)17)3-5(10(14)15)4-7(8)12(18)19/h3-4H,2H2,1H3","AWOPOGMEMRZDQH-UHFFFAOYSA-N","CCN(c1c(cc(cc1[N+]([O-])=O)[N+]([O-])=O)[N+]([O-])=O)[N+]([O-])=O","-3.7007","0.0","1","G1","301.171","1.4292000000000002","66.41959999999999","21.0","8.0","0.0","13.0","6.0","112.0","1.0","0.0","0.0","1.0","175.79999999999998","114.5031599287277","3.8050660443868805","608.5496610902835"
"B-2204","benzenamine, 4,4'-(1,2-ethynediyl)bis-","InChI=1S/C14H12N2/c15-13-7-3-11(4-8-13)1-2-12-5-9-14(16)10-6-12/h3-10H,15-16H2","WAUKJWLKPXRNKT-UHFFFAOYSA-N","Nc1ccc(cc1)C#Cc2ccc(N)cc2","-2.4326","0.0","1","G1","208.264","2.2508","67.68880000000001","16.0","2.0","2.0","2.0","0.0","78.0","2.0","0.0","0.0","2.0","52.04","94.89738834023892","2.2125575391923467","478.18829163880457"
"B-2205","benzoic acid, 2-(2-hydroxybenzoyl)-","InChI=1S/C14H10O4/c15-12-8-4-3-7-11(12)13(16)9-5-1-2-6-10(9)14(17)18/h1-8,15H,(H,17,18)","HNRPIUDTZLIYEC-UHFFFAOYSA-N","OC(=O)c1ccccc1C(=O)c2ccccc2O","-2.3428","0.0","1","G1","242.23","2.321400000000001","64.94060000000002","18.0","3.0","2.0","4.0","3.0","90.0","2.0","0.0","0.0","2.0","74.6","103.12989325883377","2.5368785771058344","616.6959859811753"
"B-2206","phthalic acid, bis(2,2,2-trinitroethyl) ester","InChI=1S/C12H8N6O16/c19-9(33-5-11(13(21)22,14(23)24)15(25)26)7-3-1-2-4-8(7)10(20)34-6-12(16(27)28,17(29)30)18(31)32/h1-4H,5-6H2","KPHWKKRARXZEEU-UHFFFAOYSA-N","[O-][N+](=O)C(COC(=O)c1ccccc1C(=O)OCC([N+]([O-])=O)([N+]([O-])=O)[N+]([O-])=O)([N+]([O-])=O)[N+]([O-])=O","-3.5782","0.0","1","G1","492.22200000000026","-1.0319999999999991","94.43540000000004","34.0","16.0","0.0","22.0","12.0","182.0","1.0","0.0","0.0","1.0","311.43999999999994","182.08904479997673","3.227915937645579","942.6303908031318"
"B-2207","2-butanol, 1,1,1-trichloro-","InChI=1S/C4H7Cl3O/c1-2-3(8)4(5,6)7/h3,8H,2H2,1H3","MJFSFJZFTQSCGW-UHFFFAOYSA-N","CCC(O)C(Cl)(Cl)Cl","-0.9481","0.0","1","G1","177.458","2.127500000000001","36.58780000000001","8.0","1.0","1.0","4.0","1.0","50.0","0.0","0.0","0.0","0.0","20.23","63.53810980386041","3.623281003705976","68.17389939125684"
"B-2209","1,3-dioxolane, 2-(2-methylpropyl)-","InChI=1S/C7H14O2/c1-6(2)5-7-8-3-4-9-7/h6-7H,3-5H2,1-2H3","NLSSIIZCHYEPNV-UHFFFAOYSA-N","CC(C)CC1OCCO1","-0.3695","0.0","1","G1","130.18699999999998","1.4054","35.14699999999999","9.0","2.0","0.0","2.0","2.0","54.0","0.0","1.0","1.0","1.0","18.46","56.15016301969372","2.1127901449768736","74.98533616859814"
"B-2210","2(1h)-azecinone, octahydro-","InChI=1S/C9H17NO/c11-9-7-5-3-1-2-4-6-8-10-9/h1-8H2,(H,10,11)","KBLFLMTZLPQGIF-UHFFFAOYSA-N","O=C1CCCCCCCCN1","-1.0737","0.0","1","G1","155.241","1.8469","45.32870000000002","11.0","1.0","1.0","2.0","0.0","64.0","0.0","1.0","1.0","1.0","29.1","68.36434107312499","2.168489511729277","110.73114066028502"
"B-2211","methanamine, n-chloro-","InChI=1S/CH4ClN/c1-3-2/h3H,1H3","QXJIABOUHLYVHP-UHFFFAOYSA-N","CNCl","0.2806","0.0","1","G1","65.503","0.3596","14.912700000000001","3.0","1.0","1.0","2.0","0.0","20.0","0.0","0.0","0.0","0.0","12.03","24.704050270872283","1.6329931618554523","4.754887502163468"
"B-2214","propanoic acid, 2,3-dimercapto-","InChI=1S/C3H6O2S2/c4-3(5)2(7)1-6/h2,6-7H,1H2,(H,4,5)","AIVVKKOTAISCNQ-UHFFFAOYSA-N","OC(=O)C(S)CS","-0.2374","0.0","1","G1","138.21300000000002","0.29919999999999997","34.2628","7.0","3.0","3.0","4.0","2.0","42.0","0.0","0.0","0.0","0.0","37.3","52.735024435665984","3.3434170589539596","73.33515884998701"
"B-2215","nifuroxime","InChI=1S/C5H4N2O4/c8-6-3-4-1-2-5(11-4)7(9)10/h1-3,8H/b6-3+","PTBKFATYSVLSSD-ZZXKWVIFSA-N","O/N=C/c1oc(cc1)[N+]([O-])=O","-2.1934","0.0","1","G1","156.09699999999998","0.9959","34.74290000000001","11.0","5.0","1.0","6.0","2.0","58.0","1.0","0.0","0.0","1.0","88.87","60.88724495800432","2.8998954899749183","290.4274538790235"
"B-2216","2h-azepin-2-one, 1-benzoylhexahydro-","InChI=1S/C13H15NO2/c15-12-9-5-2-6-10-14(12)13(16)11-7-3-1-4-8-11/h1,3-4,7-8H,2,5-6,9-10H2","FEFQUIPMKBPKAR-UHFFFAOYSA-N","O=C1CCCCCN1C(=O)c2ccccc2","-2.1667","0.0","1","G1","217.26800000000003","2.2294","60.953500000000034","16.0","2.0","0.0","3.0","1.0","84.0","1.0","1.0","1.0","2.0","37.38","95.0630446370349","2.1692947115297865","386.1788844246619"
"B-2217","c.i. disperse orange 13","InChI=1S/C22H16N4O/c27-18-12-10-17(11-13-18)24-26-22-15-14-21(19-8-4-5-9-20(19)22)25-23-16-6-2-1-3-7-16/h1-15,26H","OYLYPSTUVSONQA-UHFFFAOYSA-N","O=C1C=CC(C=C1)=NNc2ccc(N=Nc3ccccc3)c4ccccc24","-6.0092","0.0","1","G1","352.3970000000001","5.718200000000004","108.9107","27.0","5.0","1.0","5.0","4.0","130.0","3.0","0.0","1.0","4.0","66.18","155.9983979600141","1.6533973394793882","1093.620762963816"
"B-2218","2-bornanecarboxylic acid, 2-amino-","InChI=1S/C11H19NO2/c1-9(2)7-4-5-10(9,3)11(12,6-7)8(13)14/h7H,4-6,12H2,1-3H3,(H,13,14)","JZJKRUCQCUXZTD-UHFFFAOYSA-N","CC1(C)C2CCC1(C)C(N)(C2)C(O)=O","-1.5961","0.0","1","G1","197.27799999999996","1.6147","53.78320000000003","14.0","2.0","2.0","3.0","1.0","80.0","0.0","2.0","2.0","2.0","63.32","84.67265641398967","2.5043055956927045","299.66265684030725"
"B-2219","diethylamine, hydrobromide","InChI=1S/C4H11N.BrH/c1-3-5-4-2;/h5H,3-4H2,1-2H3;1H","AATGHKSFEUVOPF-UHFFFAOYSA-N","[Br-].CC[NH2+]CC","0.8123","0.0","1","G1","154.051","-3.406399999999998","23.007399999999997","6.0","0.0","1.0","2.0","2.0","40.0","0.0","0.0","0.0","0.0","16.61","49.896641667074896","0.0","15.019550008653873"
"B-2220","benzenesulfonamide, 3-amino-4-methyl-","InChI=1S/C7H10N2O2S/c1-5-2-3-6(4-7(5)8)12(9,10)11/h2-4H,8H2,1H3,(H2,9,10,11)","HCZDHXMDYWZPPN-UHFFFAOYSA-N","Cc1ccc(cc1N)[S](N)(=O)=O","-1.9169","0.0","1","G1","186.236","0.22462000000000049","46.96460000000001","12.0","3.0","2.0","5.0","1.0","66.0","1.0","0.0","0.0","1.0","86.18","71.23690252033408","3.327295999016508","397.8674448467726"
"B-2221","lactamide, n-octyl-","InChI=1S/C11H23NO2/c1-3-4-5-6-7-8-9-12-11(14)10(2)13/h10,13H,3-9H2,1-2H3,(H,12,14)","QGZRRRDVKLFCCS-UHFFFAOYSA-N","CCCCCCCCNC(=O)C(C)O","-2.2827","0.0","1","G1","201.31","1.8439","58.06650000000005","14.0","2.0","2.0","3.0","8.0","84.0","0.0","0.0","0.0","0.0","49.33","86.89429020764345","3.0958455805317366","146.22295770630774"
"B-2222","lactamide, n-decyl-","InChI=1S/C13H27NO2/c1-3-4-5-6-7-8-9-10-11-14-13(16)12(2)15/h12,15H,3-11H2,1-2H3,(H,14,16)","NUXGELRNTBNWTF-UHFFFAOYSA-N","CCCCCCCCCCNC(=O)C(C)O","-3.3605","0.0","1","G1","229.364","2.6241000000000008","67.30050000000004","16.0","2.0","2.0","3.0","10.0","96.0","0.0","0.0","0.0","0.0","49.33","99.62417443643669","3.06855151382054","169.31552917502205"
"B-2223","propanoic acid, 2-hydroxy-, 1-methyl-2-oxo-2-(2-","InChI=1S/C9H14O5/c1-4-5-13-9(12)7(3)14-8(11)6(2)10/h4,6-7,10H,1,5H2,2-3H3","CPKMYVLHYLGADM-UHFFFAOYSA-N","CC(O)C(=O)OC(C)C(=O)OCC=C","-0.6826","0.0","1","G1","202.20599999999996","0.02809999999999957","48.39080000000003","14.0","5.0","1.0","5.0","5.0","80.0","0.0","0.0","0.0","0.0","72.83","82.31355332211545","3.9419060159016484","221.24220345600435"
"B-2224","d-glucitol, 1-deoxy-1-(methylamino)-","InChI=1S/C7H17NO5/c1-8-2-4(10)6(12)7(13)5(11)3-9/h4-13H,2-3H2,1H3","MBBZMMPHUWSWHV-UHFFFAOYSA-N","CNCC(O)C(O)C(O)C(O)CO","0.4084","0.15054340745","2","G3","195.21499999999997","-3.3582999999999994","45.03970000000002","13.0","6.0","6.0","6.0","6.0","80.0","0.0","0.0","0.0","0.0","113.18","76.44993465879729","3.991684655394681","134.05130927524974"
"B-2225","propanoic acid, 2-(acetyloxy)-, methyl ester","InChI=1S/C6H10O4/c1-4(6(8)9-3)10-5(2)7/h4H,1-3H3","QTFFGYLLUHQSAS-UHFFFAOYSA-N","COC(=O)C(C)OC(C)=O","-0.2617","0.0","1","G1","146.14199999999997","0.11099999999999999","33.24399999999999","10.0","4.0","0.0","4.0","2.0","58.0","0.0","0.0","0.0","0.0","52.6","59.11409625891387","3.723665997990161","140.68324254705826"
"B-2226","glycine, n,n-bis(2-cyanoethyl)-","InChI=1S/C8H11N3O2/c9-3-1-5-11(6-2-4-10)7-8(12)13/h1-2,5-7H2,(H,12,13)","KIGQVWWOESIMBG-UHFFFAOYSA-N","OC(=O)CN(CCC#N)CCC#N","0.4578","0.0","1","G1","181.195","0.2003600000000001","44.53580000000002","13.0","4.0","1.0","5.0","6.0","70.0","0.0","0.0","0.0","0.0","88.12","76.79459471398638","3.822556458306247","220.75414416835366"
"B-2227","5-quinoxalinamine, 6,7-dimethoxy-","InChI=1S/C10H11N3O2/c1-14-7-5-6-9(13-4-3-12-6)8(11)10(7)15-2/h3-5H,11H2,1-2H3","ASEJLJNYULOOOK-UHFFFAOYSA-N","COc1cc2nccnc2c(N)c1OC","-1.7102","0.0","1","G1","205.21699999999998","1.2291999999999998","57.05440000000002","15.0","5.0","1.0","5.0","2.0","78.0","2.0","0.0","0.0","2.0","70.26","86.84922899794486","2.812528266649542","499.23663735449355"
"B-2228","urea, 1-methyl-1-p-tolyl-","InChI=1S/C9H12N2O/c1-7-3-5-8(6-4-7)11(2)9(10)12/h3-6H,1-2H3,(H2,10,12)","JPJWFNHMOPQSBQ-UHFFFAOYSA-N","CN(C(N)=O)c1ccc(C)cc1","-0.423","0.0","1","G1","164.20799999999997","1.5099200000000002","49.16540000000002","12.0","1.0","1.0","3.0","1.0","64.0","1.0","0.0","0.0","1.0","46.33","71.78747592994664","2.8925610901856844","279.0849389236156"
"B-2229","2,4-dimethyl-1-pentanol","InChI=1S/C7H16O/c1-6(2)4-7(3)5-8/h6-8H,4-5H2,1-3H3","OVOVDHYEOQJKMD-UHFFFAOYSA-N","CC(C)CC(C)CO","-1.6007","0.0","1","G1","116.20399999999998","1.6609","35.70479999999999","8.0","1.0","1.0","1.0","3.0","50.0","0.0","0.0","0.0","0.0","20.23","51.723137466405205","3.0988280941131414","50.34851554559677"
"B-2230","benzamide, 4-(aminosulfonyl)-","InChI=1S/C7H8N2O3S/c8-7(10)5-1-3-6(4-2-5)13(9,11)12/h1-4H,(H2,8,10)(H2,9,11,12)","MWFFIRCXGDGFQB-UHFFFAOYSA-N","NC(=O)c1ccc(cc1)[S](N)(=O)=O","-2.3015","0.0","1","G1","200.21899999999994","-0.5670999999999999","46.33310000000001","13.0","3.0","2.0","6.0","2.0","70.0","1.0","0.0","0.0","1.0","103.25","75.39842462037784","3.15526874357476","421.555806251591"
"B-2231","2,4(1h,3h)-pyrimidinedione, 5-methyl-1-(phenylme","InChI=1S/C12H12N2O2/c1-9-7-14(12(16)13-11(9)15)8-10-5-3-2-4-6-10/h2-7H,8H2,1H3,(H,13,15,16)","YNHQGNHVHHZPTA-UHFFFAOYSA-N","CC1=CN(Cc2ccccc2)C(=O)NC1=O","-2.2558","0.0","1","G1","216.23999999999998","0.8933199999999999","61.60370000000002","16.0","3.0","1.0","4.0","2.0","82.0","2.0","0.0","0.0","2.0","54.86","92.19069320293008","2.39685050075294","596.406092348876"
"B-2232","1h-imidazole-4-sulfonic acid, 5-methyl-","InChI=1S/C4H6N2O3S/c1-3-4(6-2-5-3)10(7,8)9/h2H,1H3,(H,5,6)(H,7,8,9)","KGDKWOYOXAFWLV-UHFFFAOYSA-N","Cc1[nH]cnc1[S](O)(=O)=O","0.188","0.0","1","G1","162.17","-0.03517999999999999","33.1393","10.0","3.0","2.0","6.0","1.0","56.0","1.0","0.0","0.0","1.0","83.04999999999998","57.853789645895","3.318295566501475","326.026832355085"
"B-2233","2,3-quinoxalinedione, 1,4-dihydro-6-methyl-","InChI=1S/C9H8N2O2/c1-5-2-3-6-7(4-5)11-9(13)8(12)10-6/h2-4H,1H3,(H,10,12)(H,11,13)","HOHZZPCLZWZMOM-UHFFFAOYSA-N","Cc1ccc2NC(=O)C(=O)Nc2c1","-3.0418","0.0","1","G1","176.175","0.5248199999999997","49.926399999999994","13.0","2.0","2.0","4.0","0.0","66.0","2.0","0.0","0.0","2.0","65.72","73.24034992760934","2.973174805197535","565.5717894788667"
"B-2234","benzoic acid, 4-bromo-3-nitro-","InChI=1S/C7H4BrNO4/c8-5-2-1-4(7(10)11)3-6(5)9(12)13/h1-3H,(H,10,11)","RVCTZJVBWNFYRU-UHFFFAOYSA-N","OC(=O)c1ccc(Br)c(c1)[N+]([O-])=O","-2.9677","0.0","1","G1","246.016","2.0555000000000003","47.7557","13.0","3.0","1.0","6.0","2.0","68.0","1.0","0.0","0.0","1.0","80.44","81.27262441427452","3.267052212361691","376.7553335743196"
"B-2235","9-acridinol, 9,10-dihydro-10-methyl-9-phenyl-","InChI=1S/C20H17NO/c1-21-18-13-7-5-11-16(18)20(22,15-9-3-2-4-10-15)17-12-6-8-14-19(17)21/h2-14,22H,1H3","MILNADFLMJQLHM-UHFFFAOYSA-N","CN1c2ccccc2C(O)(c3ccccc3)c4ccccc14","-3.9031","0.0","1","G1","287.362","4.052100000000002","89.48980000000005","22.0","2.0","1.0","2.0","1.0","108.0","3.0","0.0","1.0","4.0","23.47","129.82371202928843","2.0932961792028797","778.3756173030996"
"B-2236","2-cyclohexene-1,2-dicarboxylic acid, 1-methyl-","InChI=1S/C9H12O4/c1-9(8(12)13)5-3-2-4-6(9)7(10)11/h4H,2-3,5H2,1H3,(H,10,11)(H,12,13)","PCVSTKYNEXPKMI-UHFFFAOYSA-N","CC1(CCCC=C1C(O)=O)C(O)=O","-1.9642","0.0","1","G1","184.19099999999997","1.2722","45.31260000000002","13.0","2.0","2.0","4.0","2.0","72.0","0.0","0.0","1.0","1.0","74.6","75.8748654617685","3.077200140886093","279.33928904025254"
"B-2237","dl-aspartic acid, n,n-bis(2-cyanoethyl)-","InChI=1S/C10H13N3O4/c11-3-1-5-13(6-2-4-12)8(10(16)17)7-9(14)15/h8H,1-2,5-7H2,(H,14,15)(H,16,17)","GNVTYGNEZLLRIK-UHFFFAOYSA-N","OC(=O)CC(N(CCC#N)CCC#N)C(O)=O","-1.5337","0.0","1","G1","239.23099999999997","0.0436600000000002","55.70960000000002","17.0","5.0","2.0","7.0","8.0","92.0","0.0","0.0","0.0","0.0","125.42000000000002","98.4802347950194","4.675980003222201","337.5429610277124"
"B-2238","1,2-benzenedicarboxamide, n,n,n',n'-tetramethyl-","InChI=1S/C12H16N2O2/c1-13(2)11(15)9-7-5-6-8-10(9)12(16)14(3)4/h5-8H,1-4H3","ZUMRZCLVLLRVIF-UHFFFAOYSA-N","CN(C)C(=O)c1ccccc1C(=O)N(C)C","0.5083","0.0","1","G1","220.27199999999996","1.0902","62.47700000000003","16.0","2.0","0.0","4.0","2.0","86.0","1.0","0.0","0.0","1.0","40.620000000000005","95.46376734637089","3.202977813407694","372.23471678603164"
"B-2239","acetic acid, [2-methoxy-4-(2-propenyl)phenoxy]-","InChI=1S/C12H14O4/c1-3-4-9-5-6-10(11(7-9)15-2)16-8-12(13)14/h3,5-7H,1,4,8H2,2H3,(H,13,14)/p-1","FQBPCNCFOCPCJP-UHFFFAOYSA-M","COc1cc(CC=C)ccc1OCC([O-])=O","-2.2786","0.0","1","G1","221.23199999999997","0.5523999999999998","57.397000000000034","16.0","4.0","0.0","4.0","6.0","86.0","1.0","0.0","0.0","1.0","58.589999999999996","94.11429908494591","2.8333575016344072","384.6051921578053"
"B-2240","trichothecin","InChI=1S/C19H24O5/c1-5-6-16(21)24-14-8-15-19(10-22-19)18(14,4)17(3)9-12(20)11(2)7-13(17)23-15/h5-7,13-15H,8-10H2,1-4H3/b6-5-/t13-,14-,15-,17+,18-,19-/m1/s1","LJWZOKOFCBPNAG-SMRSBHFRSA-N","C\C=C/C(=O)O[C@@H]1C[C@H]2O[C@@H]3C=C(C)C(=O)C[C@]3(C)[C@]1(C)[C@@]24CO4","-2.9196","0.0","1","G1","332.39600000000013","2.3461000000000007","86.25000000000004","24.0","5.0","0.0","5.0","2.0","130.0","0.0","3.0","4.0","4.0","65.13","141.56935829709124","1.7773650746857308","673.244632222241"
"B-2241","amyl lactate","InChI=1S/C8H16O3/c1-3-4-5-6-11-8(10)7(2)9/h7,9H,3-6H2,1-2H3","GXOHBWLPQHTYPF-UHFFFAOYSA-N","CCCCCOC(=O)C(C)O","-1.2047","0.0","1","G1","160.213","1.1006","42.164800000000014","11.0","3.0","1.0","3.0","5.0","66.0","0.0","0.0","0.0","0.0","46.53","67.36314691035246","3.178167514720856","109.9047981204597"
"B-2242","cloxyfonac","InChI=1S/C9H9ClO4/c10-7-1-2-8(6(3-7)4-11)14-5-9(12)13/h1-3,11H,4-5H2,(H,12,13)","ZJRUTGDCLVIVRD-UHFFFAOYSA-N","OCc1cc(Cl)ccc1OCC(O)=O","-2.0347","0.0","1","G1","216.61999999999998","1.2956999999999999","50.505600000000015","14.0","3.0","2.0","5.0","4.0","76.0","1.0","0.0","0.0","1.0","66.75999999999999","85.69303052351115","2.7963995377402164","337.58388104417253"